   This run of MOLCAS is using the pymolcas driver

                             OPE
                             OPE          NMOL  CASOP  ENMOLC A   SO
                 OPE        NMOLC        AS  OP EN  MO LC     AS  OP
                OPENM       OL CA        SO  PE NM  OL CA     SOP EN
                OP EN      MO   LC       AS  OP ENMOL  CASO   PENMOL
                OP  EN     MO   LC       AS  OP EN     MO     LC ASO
               OP   E  NMOL  C  AS       OP  EN MO     LC     AS  OP
               OP  E   NMO   LC AS        OPEN  MO     LCASOP EN   M
               O  PEN   MO  LCA  SO
            OPE   NMO   L   CAS    OP
        OPENMOL  CASOP     ENMOL   CASOPE
     OPENMOLCA   SOPENMOLCASOPEN   MOLCASOPE
    OPENMOLCAS   OP           EN   MOL    CAS
    OPENMOLCAS       OP  ENM        O     LCA
    OPENMOLCAS    OPEN  MOLCASO     P  E  NMO
    OPENMOLCAS     OP               E  N  MOL
    OPENMOLCA   SO           PENM   O  L  CAS    OPEN    MO    LCAS
    OPENMOLCA   SOP           ENM   O  L  CAS   OP  EN  MOLC  AS   O
    OPENMOLCA   SOPE           NM      O  LCA   S      OP  EN MO
    OPENMOLC                AS         O  PEN   M      OL  CA  SOPE
    OPENMO        LCASOPE  NMOL        C  ASO   P      ENMOLC     AS
    OPE     NMO      LCA  SO     P     E   NM   OL  CA SO  PE N   MO
          OPENMOLCA            SOPE   NMO        LCAS  O    P  ENMO
     OPENMOLCASOPENMOLCASOPENMOLCASOPENMOLCA
        OPENMOLCASOPENMOLCASOPENMOLCASOPE
            OPENMOLCASOPENMOLCASOPENM
               OPENMOLCASOPENMOLCA        version: 18.09
                   OPENMOLCASO
                       OPE                tag: 259-g52797e1-dirty

 OpenMolcas is free software; you can redistribute it and/or modify it
 under the terms of the GNU Lesser General Public License version 2.1.
 OpenMolcas is distributed in the hope that it will be useful, but it
 is provided "as is" and without any express or implied warranties.
 For more details see the full text of the license in the file
 LICENSE or in <http://www.gnu.org/licenses/>.

                 Copyright (C) The OpenMolcas Authors
           For the author list and the recommended citation,
                   consult the file CONTRIBUTORS.md

           *************************************************
           * pymolcas version py2.05                       *
           *   build e639e37c9a57315123c35f99e509df06      *
           *   (after the EMIL interpreter by V. Veryazov) *
           *************************************************

configuration info
------------------
C Compiler ID: Intel
C flags: -I/share/apps/fftw/3.3.8/include -std=gnu99 -mcmodel=large -qopenmp
Fortran Compiler ID: Intel
Fortran flags: -fpp -mcmodel=large -i8 -r8 -heap-arrays -qopenmp
Definitions: _MOLCAS_;_I8_;_LINUX_;_MKL_;_FDE_
Parallel: OFF (GA=OFF)


   ---------------------------------------------------------------------------------------------------------------------------
  |
  |           Project: UO2_C6H5SO2_OH-m1-doublet.rassi-SO-casscf-xmscaspt2.VTZP
  |    Submitted from: /home/vallet/John-sulfinate/U-complexes/UO2_C6H5SO2_OH-m1/optg-freq-pbe0/SO-XMS
  |      Scratch area: /state/partition2/vallet/656539.phlam-s-sakura/UO2_C6H5SO2_OH-m1-doublet.rassi-SO-casscf-xmscaspt2.VTZP
  |   Save outputs to: /home/vallet/John-sulfinate/U-complexes/UO2_C6H5SO2_OH-m1/optg-freq-pbe0/SO-XMS
  |            Molcas: /home/pcmt/OpenMolcas/OpenMolcas-20190114
  |
  | Scratch area is empty
  |
  |    MOLCAS_DRIVER = /home/pcmt/OpenMolcas/OpenMolcas-20190114/sbin/pymolcas
  |   MOLCAS_LICENSE = /home/pcmt/molcas/license
  |    MOLCAS_MOLDEN = ON
  |    MOLCAS_NPROCS = 1
  |    MOLCAS_SOURCE = /home/pcmt/OpenMolcas/OpenMolcas-20190114
  | MOLCAS_STRUCTURE = 0
  |
   ---------------------------------------------------------------------------------------------------------------------------

++ ---------   Input file   ---------

&GATEWAY
   COORD=$HomeDir/UO2_C6H5SO2_OH-m1.pbe0.optg-zaxis.xyz
   BASIS=ANO-RCC-VTZP
   Group=Nosym
   ANGM=0.0 0.0 0.0
   RICD

>>> COPY $Project.RunFile $HomeDir

&SEWARD

>>> COPY $HomeDir/UO2_C6H5SO2_OH-m1-doublet.casscf.MB.RunFile RUNFIL1

>>> COPY $Project.RunFile RUNFIL2

>>> COPY $HomeDir/UO2_C6H5SO2_OH-m1-doublet.casscf.MB.RasOrb_doublets INPORB

&EXPBAS

>>> COPY $Project.ExpOrb $HomeDir/$Project.ExpOrb_doublets

>>> COPY $HomeDir/$Project.ExpOrb_doublets INPORB

&RASSCF
   Spin=2
   Symmetry=1
   Nactel=1 0 0
   Inactive=95
   Ras2=4
   CIRoots=4 4 1
   Lumorb

>>> COPY $Project.RasOrb $HomeDir/$Project.RasOrb_doublets

>>> COPY $Project.JobIph $HomeDir/$Project.JobIph_doublets

&CASPT2
    IPEA=0.0
    XMUL= ALL
    THRESHOLDS= 1.0D-09 1.0D-07
    MAXITER=150
    CONVERGENCE=1.0D-6
    IMAG=0.1

>>> COPY $Project.JobMix $HomeDir/$Project.JobMix_doublets

>>> COPY $HomeDir/$Project.JobIph_doublets JOB001

&RASSI
    EJob
    SPINorbit

>>> COPY $HomeDir/$Project.JobMix_doublets JOB001

&RASSI
    EJob
    SPINorbit

-- ----------------------------------

--- Start Module: gateway at Tue Dec 17 20:12:57 2019 ---
 
()()()()()()()()()()()()()()()()()()()()()()()()()()()()()()()()()()()()()()()()()()()()()()()()()()

                                              &GATEWAY

                                   only a single process is used
                       available to each process: 32 GB of memory, 8 threads
()()()()()()()()()()()()()()()()()()()()()()()()()()()()()()()()()()()()()()()()()()()()()()()()()()
 
 
++    Symmetry information:
      ---------------------
 
                    Character Table for C1 
 
                             E  
                    a        1  x, y, xy, Rz, z, xz, Ry, yz, Rx, I
--
 
 
++    Basis set information:
      ----------------------
 
 
      Basis set label: C.ANO-RCC...4S3P2D1F.
 
      Electronic valence basis set:
      ------------------
      Associated Effective Charge   6.000000 au
      Associated Actual Charge      6.000000 au
      Nuclear Model: Point charge
 
      Shell  nPrim  nBasis  Cartesian Spherical Contaminant
         s      14       4        X                  
         p       9       3        X                  
         d       4       2                 X         
         f       3       1                 X         
 
 
      Basis set label: S.ANO-RCC...5S4P2D1F.
 
      Electronic valence basis set:
      ------------------
      Associated Effective Charge  16.000000 au
      Associated Actual Charge     16.000000 au
      Nuclear Model: Point charge
 
      Shell  nPrim  nBasis  Cartesian Spherical Contaminant
         s      17       5        X                  
         p      12       4        X                  
         d       5       2                 X         
         f       4       1                 X         
 
 
      Basis set label: O.ANO-RCC...4S3P2D1F.
 
      Electronic valence basis set:
      ------------------
      Associated Effective Charge   8.000000 au
      Associated Actual Charge      8.000000 au
      Nuclear Model: Point charge
 
      Shell  nPrim  nBasis  Cartesian Spherical Contaminant
         s      14       4        X                  
         p       9       3        X                  
         d       4       2                 X         
         f       3       1                 X         
 
 
      Basis set label: U.ANO-RCC...9S8P6D4F2G1H.
 
      Electronic valence basis set:
      ------------------
      Associated Effective Charge  92.000000 au
      Associated Actual Charge     92.000000 au
      Nuclear Model: Point charge
 
      Shell  nPrim  nBasis  Cartesian Spherical Contaminant
         s      26       9        X                  
         p      23       8        X                  
         d      17       6                 X         
         f      13       4                 X         
         g       5       2                 X         
         h       3       1                 X         
 
 
      Basis set label: O.ANO-RCC...4S3P2D1F.
 
      Electronic valence basis set:
      ------------------
      Associated Effective Charge   8.000000 au
      Associated Actual Charge      8.000000 au
      Nuclear Model: Point charge
 
      Shell  nPrim  nBasis  Cartesian Spherical Contaminant
         s      14       4        X                  
         p       9       3        X                  
         d       4       2                 X         
         f       3       1                 X         
 
 
      Basis set label: H.ANO-RCC...3S2P1D.
 
      Electronic valence basis set:
      ------------------
      Associated Effective Charge   1.000000 au
      Associated Actual Charge      1.000000 au
      Nuclear Model: Point charge
 
      Shell  nPrim  nBasis  Cartesian Spherical Contaminant
         s       8       3        X                  
         p       4       2        X                  
         d       3       1                 X         
 
 
      Basis set label: O.ANO-RCC...4S3P2D1F.
 
      Electronic valence basis set:
      ------------------
      Associated Effective Charge   8.000000 au
      Associated Actual Charge      8.000000 au
      Nuclear Model: Point charge
 
      Shell  nPrim  nBasis  Cartesian Spherical Contaminant
         s      14       4        X                  
         p       9       3        X                  
         d       4       2                 X         
         f       3       1                 X         
 
 
      Basis set label: H.ANO-RCC...3S2P1D.
 
      Electronic valence basis set:
      ------------------
      Associated Effective Charge   1.000000 au
      Associated Actual Charge      1.000000 au
      Nuclear Model: Point charge
 
      Shell  nPrim  nBasis  Cartesian Spherical Contaminant
         s       8       3        X                  
         p       4       2        X                  
         d       3       1                 X         
--
 
 
++    Molecular structure info:
      -------------------------
 
                    ************************************************ 
                    **** Cartesian Coordinates / Bohr, Angstrom **** 
                    ************************************************ 
 
     Center  Label                x              y              z                     x              y              z
        1      C1              -0.338752       6.020403       5.023667             -0.179260       3.185860       2.658410
        2      C2              -0.226616       7.461508       2.830526             -0.119920       3.948460       1.497850
        3      C3              -0.359823      10.072278       2.923104             -0.190410       5.330020       1.546840
        4      C4              -0.610004      11.286030       5.239625             -0.322800       5.972310       2.772690
        5      C5              -0.724615       9.867734       7.439266             -0.383450       5.221780       3.936690
        6      C6              -0.589708       7.243377       7.325448             -0.312060       3.833030       3.876460
        7      S7               0.111815       5.970250      -0.246704              0.059170       3.159320      -0.130550
        8      O8              -2.157009       4.162613      -0.302205             -1.141440       2.202760      -0.159920
        9      U9               0.000000       0.000000       0.000000              0.000000       0.000000       0.000000
       10      O10              0.000000       0.000000       3.434124              0.000000       0.000000       1.817260
       11      O11              2.448329       4.322862       0.094486              1.295600       2.287560       0.050000
       12      O12             -2.768562      -3.090571      -0.164349             -1.465060      -1.635460      -0.086970
       13      H13             -3.113494      -3.622926      -1.860776             -1.647590      -1.917170      -0.984680
       14      O14              0.566993      -0.281380      -3.364884              0.300040      -0.148900      -1.780620
       15      H15             -0.268247      11.150367       1.180115             -0.141950       5.900520       0.624490
       16      H16             -0.715620      13.330846       5.324209             -0.378690       7.054380       2.817450
       17      H17             -0.921090      10.804566       9.251400             -0.487420       5.717530       4.895630
       18      H18             -0.683419       6.140949       9.050257             -0.361650       3.249650       4.789190
       19      H19             -0.231643       3.972620       4.900910             -0.122580       2.102220       2.593450
 
                    ************************************************* 
                    **** InterNuclear Distances / Bohr, Angstrom **** 
                    ************************************************* 
 
     Atom centers         Bohr        Angstrom
   13 H13      12 O12     1.811143        0.958416
   18 H18       6 C6      2.049170        1.084374
   16 H16       4 C4      2.049288        1.084437
   17 H17       5 C5      2.049411        1.084502
   15 H15       3 C3      2.051505        1.085610
   19 H19       1 C1      2.054253        1.087064
    3 C3        2 C2      2.615805        1.384224
    6 C6        1 C1      2.618557        1.385681
    5 C5        4 C4      2.619756        1.386315
    2 C2        1 C1      2.626637        1.389957
    4 C4        3 C3      2.627176        1.390242
    6 C6        5 C5      2.630286        1.391887
   11 O11       7 S7      2.879166        1.523589
    8 O8        7 S7      2.901412        1.535361
   14 O14       9 U9      3.423902        1.811851
   10 O10       9 U9      3.434124        1.817260
    7 S7        2 C2      3.436238        1.818379
   15 H15       2 C2      4.041444        2.138640
   18 H18       1 C1      4.043113        2.139523
   17 H17       4 C4      4.052521        2.144502
   19 H19       2 C2      4.056951        2.146846
   16 H16       5 C5      4.057917        2.147357
   18 H18       5 C5      4.060286        2.148611
   17 H17       6 C6      4.062164        2.149604
   16 H16       3 C3      4.063270        2.150190
   15 H15       4 C4      4.076128        2.156994
   19 H19       6 C6      4.087107        2.162804
   12 O12       9 U9      4.152539        2.197429
   19 H19      10 O10     4.241088        2.244287
    6 C6        2 C2      4.514835        2.389148
    5 C5        3 C3      4.535486        2.400076
    4 C4        2 C2      4.536266        2.400489
    6 C6        4 C4      4.549079        2.407269
    5 C5        1 C1      4.559163        2.412605
    3 C3        1 C1      4.564044        2.415188
   11 O11       8 O8      4.625168        2.447534
   18 H18      17 H17     4.674000        2.473374
   17 H17      16 H16     4.674092        2.473423
    9 U9        8 O8      4.698017        2.486084
   19 H19      18 H18     4.703492        2.488981
   16 H16      15 H15     4.704056        2.489279
    8 O8        2 C2      4.941976        2.615181
   11 O11       2 C2      4.948974        2.618884
   11 O11       9 U9      4.968941        2.629451
   13 H13       9 U9      5.126590        2.712875
   14 O14      13 H13     5.193675        2.748374
    7 S7        3 C3      5.205455        2.754608
    5 C5        2 C2      5.222874        2.763826
    6 C6        3 C3      5.237954        2.771806
    4 C4        1 C1      5.277030        2.792484
    7 S7        1 C1      5.289833        2.799259
   15 H15       7 S7      5.386453        2.850388
   14 O14      12 O12     5.409335        2.862497
   12 O12      10 O10     5.492320        2.906411
   19 H19      11 O11     5.514221        2.918000
   19 H19       7 S7      5.532307        2.927571
   19 H19       8 O8      5.551175        2.937555
--
 
 
            Nuclear Potential Energy           2297.91459659 au
 
--- Stop Module: gateway at Tue Dec 17 20:14:52 2019 /rc=_RC_ALL_IS_WELL_ ---
*** files: UO2_C6H5SO2_OH-m1-doublet.rassi-SO-casscf-xmscaspt2.VTZP.RICDLib xmldump
    saved to directory /home/vallet/John-sulfinate/U-complexes/UO2_C6H5SO2_OH-m1/optg-freq-pbe0/SO-XMS
--- Module gateway spent 1 minute 54 seconds ---

>>> COPY UO2_C6H5SO2_OH-m1-doublet.rassi-SO-casscf-xmscaspt2.VTZP.RunFile /home/vallet/John-sulfinate/U-complexes/UO2_C6H5SO2_OH-m1/optg-freq-pbe0/SO-XMS

--- Start Module: seward at Tue Dec 17 20:14:52 2019 ---
 
()()()()()()()()()()()()()()()()()()()()()()()()()()()()()()()()()()()()()()()()()()()()()()()()()()

                                              &SEWARD

                                   only a single process is used
                       available to each process: 32 GB of memory, 8 threads
()()()()()()()()()()()()()()()()()()()()()()()()()()()()()()()()()()()()()()()()()()()()()()()()()()
 
               SEWARD will generate:
                  Multipole Moment integrals up to order  2
                  Kinetic Energy integrals
                  Nuclear Attraction integrals (point charge)
                  One-Electron Hamiltonian integrals
                  Velocity integrals
                  Relativistic Douglas-Kroll-Hess integrals:
                    - Parametrization         : EXP
                    - DKH order of Hamiltonian: 2
                    - DKH order of Properties : 0
                         - multipole moment operators
                         - electric potential operators
                         - contact operators
                  Orbital angular momentum around ( 0.0000  0.0000  0.0000 )
                  Atomic mean-field integrals
                  RI decomposed two-electron repulsion integrals stored Cholesky style
                   - acCD auxiliary basis
                   - CD Threshold:   0.10E-03
 
                   Integrals are discarded if absolute value <: 0.10E-13
                   Integral cutoff threshold is set to       <: 0.10E-15
 
            Nuclear Potential Energy           2297.91459659 au
 
 
      Basis set specifications :
      Symmetry species         a  
      Basis functions          568
 
 
 Post_2Center_RI
 Detected lin. dependences in the auxiliary basis.
 # of AuxBas before l. d. removal:   4973
 # of AuxBas after  l. d. removal:   4954
 
 Sorry, Molden does not know how to handle
 functions with angular momentum larger than g
--- Stop Module: seward at Tue Dec 17 20:23:19 2019 /rc=_RC_ALL_IS_WELL_ ---
*** files: UO2_C6H5SO2_OH-m1-doublet.rassi-SO-casscf-xmscaspt2.VTZP.GssOrb UO2_C6H5SO2_OH-m1-doublet.rassi-SO-casscf-xmscaspt2.VTZP.guessorb.h5 xmldump
    saved to directory /home/vallet/John-sulfinate/U-complexes/UO2_C6H5SO2_OH-m1/optg-freq-pbe0/SO-XMS
--- Module seward spent 8 minutes 26 seconds ---

>>> COPY /home/vallet/John-sulfinate/U-complexes/UO2_C6H5SO2_OH-m1/optg-freq-pbe0/SO-XMS/UO2_C6H5SO2_OH-m1-doublet.casscf.MB.RunFile RUNFIL1

>>> COPY UO2_C6H5SO2_OH-m1-doublet.rassi-SO-casscf-xmscaspt2.VTZP.RunFile RUNFIL2

>>> COPY /home/vallet/John-sulfinate/U-complexes/UO2_C6H5SO2_OH-m1/optg-freq-pbe0/SO-XMS/UO2_C6H5SO2_OH-m1-doublet.casscf.MB.RasOrb_doublets INPORB

--- Start Module: expbas at Tue Dec 17 20:23:20 2019 ---
 
()()()()()()()()()()()()()()()()()()()()()()()()()()()()()()()()()()()()()()()()()()()()()()()()()()

                                              &EXPBAS

                                   only a single process is used
                       available to each process: 32 GB of memory, 8 threads
()()()()()()()()()()()()()()()()()()()()()()()()()()()()()()()()()()()()()()()()()()()()()()()()()()
 

 Header on input orbitals file:
* RASSCF average (pseudo-natural) orbitals

 Information from input runfile
           Number of symmetries    1
      Number of basis functions  129

 Information from expanded basis set runfile
           Number of symmetries    1
      Number of basis functions  568
 New orbitals have been built in file EXPORB
--- Stop Module: expbas at Tue Dec 17 20:23:20 2019 /rc=_RC_ALL_IS_WELL_ ---
*** files: UO2_C6H5SO2_OH-m1-doublet.rassi-SO-casscf-xmscaspt2.VTZP.ExpOrb xmldump
    saved to directory /home/vallet/John-sulfinate/U-complexes/UO2_C6H5SO2_OH-m1/optg-freq-pbe0/SO-XMS

>>> COPY UO2_C6H5SO2_OH-m1-doublet.rassi-SO-casscf-xmscaspt2.VTZP.ExpOrb /home/vallet/John-sulfinate/U-complexes/UO2_C6H5SO2_OH-m1/optg-freq-pbe0/SO-XMS/UO2_C6H5SO2_OH-m1-doublet.rassi-SO-casscf-xmscaspt2.VTZP.ExpOrb_doublets

>>> COPY /home/vallet/John-sulfinate/U-complexes/UO2_C6H5SO2_OH-m1/optg-freq-pbe0/SO-XMS/UO2_C6H5SO2_OH-m1-doublet.rassi-SO-casscf-xmscaspt2.VTZP.ExpOrb_doublets INPORB

--- Start Module: rasscf at Tue Dec 17 20:23:20 2019 ---
 
()()()()()()()()()()()()()()()()()()()()()()()()()()()()()()()()()()()()()()()()()()()()()()()()()()

                                              &RASSCF

                                   only a single process is used
                       available to each process: 32 GB of memory, 8 threads
()()()()()()()()()()()()()()()()()()()()()()()()()()()()()()()()()()()()()()()()()()()()()()()()()()
 
 
      Header of the ONEINT file:
      --------------------------
      
      Integrals generated by seward 4.2.0  , Tue Dec 17 20:14:52 2019
 
 
      OrdInt status: non-squared
 
 
      Cartesian coordinates in Angstrom:
      -----------------------------------------------------
      No.  Label        X            Y            Z        
      -----------------------------------------------------
       1   C1        -0.17926000   3.18586000   2.65841000
       2   C2        -0.11992000   3.94846000   1.49785000
       3   C3        -0.19041000   5.33002000   1.54684000
       4   C4        -0.32280000   5.97231000   2.77269000
       5   C5        -0.38345000   5.22178000   3.93669000
       6   C6        -0.31206000   3.83303000   3.87646000
       7   S7         0.05917000   3.15932000  -0.13055000
       8   O8        -1.14144000   2.20276000  -0.15992000
       9   U9         0.00000000   0.00000000   0.00000000
      10   O10        0.00000000   0.00000000   1.81726000
      11   O11        1.29560000   2.28756000   0.05000000
      12   O12       -1.46506000  -1.63546000  -0.08697000
      13   H13       -1.64759000  -1.91717000  -0.98468000
      14   O14        0.30004000  -0.14890000  -1.78062000
      15   H15       -0.14195000   5.90052000   0.62449000
      16   H16       -0.37869000   7.05438000   2.81745000
      17   H17       -0.48742000   5.71753000   4.89563000
      18   H18       -0.36165000   3.24965000   4.78919000
      19   H19       -0.12258000   2.10222000   2.59345000
      -----------------------------------------------------
      Nuclear repulsion energy = 2297.91459659
 
++    Wave function specifications:
      -----------------------------
 
      Number of closed shell electrons         190
      Number of electrons in active shells       1
      Max number of holes in RAS1 space          0
      Max nr of electrons in RAS3 space          0
      Number of inactive orbitals               95
      Number of active orbitals                  4
      Number of secondary orbitals             469
      Spin quantum number                      0.5
      State symmetry                             1
--
 
++    Orbital specifications:
      -----------------------
 
      Symmetry species                           1
                                                 a
      Frozen orbitals                            0
      Inactive orbitals                         95
      Active orbitals                            4
      RAS1 orbitals                              0
      RAS2 orbitals                              4
      RAS3 orbitals                              0
      Secondary orbitals                       469
      Deleted orbitals                           0
      Number of basis functions                568
--
 
++    CI expansion specifications:
      ----------------------------
 
      Number of CSFs                             4
      Number of determinants                     4
      Number of root(s) required                 4
      Root chosen for geometry opt.              4
      CI roots used                              1     2     3     4
      weights                                0.250 0.250 0.250 0.250
      highest root included in the CI            4
      max. size of the explicit Hamiltonian      4
--
 
++    Optimization specifications:
      ----------------------------
 
      RASSCF algorithm: LK RI/DF
      Maximum number of macro iterations       200
      Maximum number of SX iterations          100
      Threshold for RASSCF energy            0.100E-07
      Threshold for max MO rotation          0.100E+00
      Threshold for max BLB element          0.100E-03
      Level shift parameter                  0.500E+00
      Make Quasi-Newton update
--
 
      The MO-coefficients are taken from the file:
      INPORB                                                                                                                          
      Title:Basis set expanded orbital file EXPORB                                         
 
      Total molecular charge   -1.00
 
      ************************************************************************************************************************
      *                                                                                                                      *
      *                                            Wave function control section                                             *
      *                                                                                                                      *
      ************************************************************************************************************************
 
 
                                         RASSCF iterations: Energy and convergence statistics
                                         ----------------------------------------------------
 
      Iter CI   SX   CI       RASSCF       Energy    max ROT     max BLB   max BLB  Level Ln srch  Step   QN   Walltime
          iter iter root      energy       change     param      element    value   shift minimum  type update hh:mm:ss
 Nr of preliminary CI iterations:   1
      Total energies have been shifted. Add               -28000.00 au
        1   1   20    0  -953.23302381    0.00E+00  -0.37E-01   59 288 1  0.25E+00*  0.59   0.00    SX    NO    0:06:38
        2   1   24    0  -954.02411419   -0.79E+00*  0.23E-01   61 130 1  0.93E-01*  0.61   0.00    SX    NO    0:04:08
        3   1   24    0  -954.21797409   -0.19E+00* -0.18E-01   80 116 1 -0.57E-01*  0.58   0.00    SX    NO    0:04:23
        4   1   23    0  -954.27620073   -0.58E-01* -0.12E-01   80 116 1 -0.38E-01*  0.59   0.00    SX    NO    0:04:30
        5   1   22    0  -954.29623838   -0.20E-01* -0.15E-01   80 116 1 -0.25E-01*  0.59   2.50    LS   YES    0:04:34
        6   1   21    0  -954.30732781   -0.11E-01* -0.66E-02   87 116 1  0.12E-01*  0.58   1.20    QN   YES    0:04:37
        7   1   20    0  -954.30940102   -0.21E-02*  0.50E-02   87 116 1  0.60E-02*  0.59   1.29    QN   YES    0:04:47
        8   1   18    0  -954.31021708   -0.82E-03* -0.29E-02   78 104 1  0.22E-02*  0.59   1.32    QN   YES    0:04:54
        9   1   17    0  -954.31038742   -0.17E-03* -0.25E-02   78 104 1  0.87E-03*  0.59   1.27    QN   YES    0:05:05
       10   1   15    0  -954.31041920   -0.32E-04*  0.28E-02   61 130 1  0.43E-03*  0.59   1.52    QN   YES    0:05:15
       11   1   14    0  -954.31043081   -0.12E-04*  0.25E-02   86 100 1 -0.33E-03*  0.59   1.40    QN   YES    0:05:22
       12   1   13    0  -954.31043474   -0.39E-05*  0.32E-02   86 100 1 -0.23E-03*  0.59   1.70    QN   YES    0:05:23
       13   1   13    0  -954.31043749   -0.28E-05*  0.36E-02   99 108 1 -0.15E-03*  0.59   1.72    QN   YES    0:05:26
       14   1   12    0  -954.31043952   -0.20E-05* -0.33E-02   69 107 1 -0.15E-03*  0.59   1.70    QN   YES    0:05:32
       15   1   12    0  -954.31044086   -0.13E-05* -0.21E-02   80 100 1  0.11E-03*  0.59   1.57    QN   YES    0:05:30
       16   1   11    0  -954.31044152   -0.67E-06* -0.10E-02   86 100 1  0.12E-03*  0.59   1.51    QN   YES    0:05:33
       17   1   10    0  -954.31044181   -0.29E-06*  0.46E-03   86 100 1  0.11E-03*  0.59   1.49    QN   YES    0:05:34
       18   1   10    0  -954.31044193   -0.12E-06*  0.25E-03   86 100 1  0.73E-04   0.59   1.49    QN   YES    0:05:33
       19   1    9    0  -954.31044199   -0.51E-07*  0.16E-03   86 100 1  0.44E-04   0.59   1.48    QN   YES    0:05:37
       20   1    8    0  -954.31044201   -0.21E-07*  0.10E-03   86 100 1  0.24E-04   0.59   1.48    QN   YES    0:05:42
       21   1    8    0  -954.31044202   -0.85E-08   0.52E-04   86 100 1  0.12E-04   0.59   1.36    QN   YES    0:05:37
      Convergence after 21 iterations
       22   1    8    0  -954.31044202   -0.33E-08   0.52E-04   95 104 1 -0.77E-05   0.59   1.36    QN   YES    0:05:41
 
      ************************************************************************************************************************
                                                      Wave function printout:
                       occupation of active orbitals, and spin coupling of open shells (u,d: Spin up or down)
      ************************************************************************************************************************
 
      Note: transformation to natural orbitals
      has been made, which may change the order of the CSFs.
 
      printout of CI-coefficients larger than  0.05 for root  1
      energy=  -28954.314621
      conf/sym  1111     Coeff  Weight
             1  u000  -0.35655 0.12713
             2  0u00   0.61296 0.37571
             3  00u0  -0.07653 0.00586
             4  000u   0.70093 0.49130
 
      printout of CI-coefficients larger than  0.05 for root  2
      energy=  -28954.311193
      conf/sym  1111     Coeff  Weight
             1  u000   0.68770 0.47293
             2  0u00   0.42484 0.18049
             3  00u0   0.58718 0.34478
 
      printout of CI-coefficients larger than  0.05 for root  3
      energy=  -28954.310106
      conf/sym  1111     Coeff  Weight
             1  u000  -0.62518 0.39085
             2  0u00   0.21399 0.04579
             3  00u0   0.60906 0.37095
             4  000u  -0.43865 0.19241
 
      printout of CI-coefficients larger than  0.05 for root  4
      energy=  -28954.305848
      conf/sym  1111     Coeff  Weight
             1  u000  -0.09537 0.00910
             2  0u00  -0.63088 0.39801
             3  00u0   0.52764 0.27841
             4  000u   0.56079 0.31449
 
      Natural orbitals and occupation numbers for root  1
      sym 1:  -0.000000   1.000000   0.000000   0.000000
 
      Natural orbitals and occupation numbers for root  2
      sym 1:   1.000000  -0.000000  -0.000000   0.000000
 
      Natural orbitals and occupation numbers for root  3
      sym 1:   1.000000  -0.000000   0.000000   0.000000
 
      Natural orbitals and occupation numbers for root  4
      sym 1:   0.000000   1.000000  -0.000000  -0.000000
 
      ************************************************************************************************************************
      *                                                                                                                      *
      *                                                    Final results                                                     *
      *                                                                                                                      *
      ************************************************************************************************************************
 
 
++    Wave function specifications:
      -----------------------------
 
      Number of closed shell electrons         190
      Number of electrons in active shells       1
      Max number of holes in RAS1 space          0
      Max nr of electrons in RAS3 space          0
      Number of inactive orbitals               95
      Number of active orbitals                  4
      Number of secondary orbitals             469
      Spin quantum number                      0.5
      State symmetry                             1
--
 
++    Orbital specifications:
      -----------------------
 
      Symmetry species                           1
                                                 a
      Frozen orbitals                            0
      Inactive orbitals                         95
      Active orbitals                            4
      RAS1 orbitals                              0
      RAS2 orbitals                              4
      RAS3 orbitals                              0
      Secondary orbitals                       469
      Deleted orbitals                           0
      Number of basis functions                568
--
 
++    CI expansion specifications:
      ----------------------------
 
      Number of CSFs                             4
      Number of determinants                     4
      Number of root(s) required                 4
      CI roots used                              1     2     3     4
      weights                                0.250 0.250 0.250 0.250
      highest root included in the CI            4
      Root passed to geometry opt.               4
--
 
++    Final optimization conditions:
      ------------------------------
 
      Average CI energy                          -28954.31044202
      RASSCF energy for state  4                 -28954.30584829
      Super-CI energy                                -0.00000000
      RASSCF energy change                           -0.00000000
      Max change in MO coefficients               0.669E-04
      Max non-diagonal density matrix element     0.524E-04
      Maximum BLB matrix element                 -0.766E-05
      (orbital pair  95, 104 in symmetry   1)
      Norm of electronic gradient            0.154E+00
--
 
 
      Final state energy(ies):
      ------------------------
 
::    RASSCF root number  1 Total energy: -28954.31462067
::    RASSCF root number  2 Total energy: -28954.31119317
::    RASSCF root number  3 Total energy: -28954.31010595
::    RASSCF root number  4 Total energy: -28954.30584829
 
++    Molecular orbitals:
      -------------------
 
      Pseudonatural active orbitals and approximate occupation numbers
 
 
      MOLECULAR ORBITALS FOR SYMMETRY SPECIES 1: a  
 
      INDEX  ENERGY  OCCUPATION COEFFICIENTS ...
          1-4260.2184    2.0000                                                                                                           
               245 U9     1s     ( 1.0000)
          2 -804.1855    2.0000                                                                                                           
               246 U9     2s     ( 1.0000)
          3 -674.8568    2.0000                                                                                                           
               270 U9     2pz    ( 0.9954)
          4 -674.8565    2.0000                                                                                                           
               254 U9     2px    ( 0.5135) 262 U9     2py    ( 0.8578)
          5 -674.8560    2.0000                                                                                                           
               254 U9     2px    ( 0.8532) 262 U9     2py    (-0.5133)
          6 -206.2349    2.0000                                                                                                           
               247 U9     3s     ( 1.0000)
          7 -169.6343    2.0000                                                                                                           
               255 U9     3px    ( 0.4028) 263 U9     3py    ( 0.9152)
          8 -169.6337    2.0000                                                                                                           
               255 U9     3px    ( 0.9117) 263 U9     3py    (-0.4002)
          9 -169.6289    2.0000                                                                                                           
               271 U9     3pz    ( 0.9956)
         10 -135.0580    2.0000                                                                                                           
               278 U9     3d2-   ( 0.2888) 302 U9     3d2+   ( 0.9529)
         11 -135.0579    2.0000                                                                                                           
               278 U9     3d2-   ( 0.9530) 302 U9     3d2+   (-0.2881)
         12 -135.0562    2.0000                                                                                                           
               284 U9     3d1-   ( 0.9005) 296 U9     3d1+   ( 0.4253)
         13 -135.0559    2.0000                                                                                                           
               284 U9     3d1-   (-0.4188) 290 U9     3d0    ( 0.1591) 296 U9     3d1+   ( 0.8889)
         14 -135.0549    2.0000                                                                                                           
               290 U9     3d0    ( 0.9870) 296 U9     3d1+   (-0.1413)
         15  -92.2647    2.0000                                                                                                           
               181 S7     1s     ( 1.0000)
         16  -54.2261    2.0000                                                                                                           
               248 U9     4s     ( 1.0000)
         17  -42.0079    2.0000                                                                                                           
               256 U9     4px    ( 0.3527) 264 U9     4py    ( 0.9356)
         18  -42.0070    2.0000                                                                                                           
               256 U9     4px    ( 0.9323) 264 U9     4py    (-0.3498)
         19  -41.9976    2.0000                                                                                                           
               272 U9     4pz    ( 0.9956)
         20  -28.7679    2.0000                                                                                                           
               279 U9     4d2-   ( 0.9914)
         21  -28.7677    2.0000                                                                                                           
               303 U9     4d2+   ( 0.9915)
         22  -28.7625    2.0000                                                                                                           
               285 U9     4d1-   ( 0.9673) 297 U9     4d1+   ( 0.2292)
         23  -28.7622    2.0000                                                                                                           
               285 U9     4d1-   (-0.2190) 291 U9     4d0    ( 0.1527) 297 U9     4d1+   ( 0.9594)
         24  -28.7601    2.0000                                                                                                           
               291 U9     4d0    ( 0.9855) 297 U9     4d1+   (-0.1409)
         25  -20.4174    2.0000                                                                                                           
               215 O8     1s     ( 0.9995)
         26  -20.4119    2.0000                                                                                                           
               395 O11    1s     ( 0.9994)
         27  -20.3644    2.0000                                                                                                           
               469 O14    1s     ( 0.9998)
         28  -20.3630    2.0000                                                                                                           
               365 O10    1s     (-0.9998)
         29  -20.3578    2.0000                                                                                                           
               425 O12    1s     (-0.9999)
         30  -14.9795    2.0000                                                                                                           
               308 U9     4f3-   (-0.6682) 328 U9     4f2+   ( 0.1164) 332 U9     4f3+   ( 0.7341)
         31  -14.9794    2.0000                                                                                                           
               308 U9     4f3-   ( 0.7346) 312 U9     4f2-   ( 0.1119) 332 U9     4f3+   ( 0.6690)
         32  -14.9762    2.0000                                                                                                           
               316 U9     4f1-   ( 0.1077) 320 U9     4f0    ( 0.5599) 328 U9     4f2+   ( 0.8157)
         33  -14.9761    2.0000                                                                                                           
               312 U9     4f2-   ( 0.9806) 316 U9     4f1-   ( 0.1368)
         34  -14.9759    2.0000                                                                                                           
               320 U9     4f0    ( 0.7956) 324 U9     4f1+   (-0.2402) 328 U9     4f2+   (-0.5483)
         35  -14.9680    2.0000                                                                                                           
               316 U9     4f1-   ( 0.9030) 324 U9     4f1+   ( 0.4025) 328 U9     4f2+   (-0.1124)
         36  -14.9678    2.0000                                                                                                           
               312 U9     4f2-   ( 0.1142) 316 U9     4f1-   (-0.3907) 320 U9     4f0    ( 0.2280) 324 U9     4f1+   ( 0.8799)
      
         37  -12.5490    2.0000                                                                                                           
               249 U9     5s     ( 1.0004)
         38  -11.1514    2.0000                                                                                                           
                61 C3     1s     ( 0.1692)  91 C4     1s     ( 0.2716) 121 C5     1s     ( 0.9456)
         39  -11.1507    2.0000                                                                                                           
                31 C2     1s     ( 0.2893)  61 C3     1s     ( 0.9028)  91 C4     1s     ( 0.2195) 121 C5     1s     (-0.2353)
      
         40  -11.1487    2.0000                                                                                                           
                31 C2     1s     ( 0.6871)  91 C4     1s     (-0.7064) 121 C5     1s     ( 0.1758)
         41  -11.1483    2.0000                                                                                                           
                31 C2     1s     (-0.6661)  61 C3     1s     ( 0.4000)  91 C4     1s     (-0.6182) 121 C5     1s     ( 0.1314)
      
         42  -11.1428    2.0000                                                                                                           
               151 C6     1s     ( 0.9951)
         43  -11.1355    2.0000                                                                                                           
                 1 C1     1s     ( 0.9976)
         44   -9.0049    2.0000                                                                                                           
               182 S7     2s     ( 0.9988)
         45   -8.6445    2.0000                                                                                                           
               273 U9     5pz    ( 0.9949)
         46   -8.6378    2.0000                                                                                                           
               257 U9     5px    ( 0.5163) 265 U9     5py    ( 0.8560)
         47   -8.6348    2.0000                                                                                                           
               257 U9     5px    ( 0.8514) 265 U9     5py    (-0.5162)
         48   -6.6373    2.0000                                                                                                           
               186 S7     2px    ( 0.3688) 190 S7     2py    ( 0.6417) 194 S7     2pz    ( 0.6732)
         49   -6.6372    2.0000                                                                                                           
               186 S7     2px    ( 0.9300) 190 S7     2py    (-0.2623) 194 S7     2pz    (-0.2592)
         50   -6.6353    2.0000                                                                                                           
               190 S7     2py    (-0.7208) 194 S7     2pz    ( 0.6926)
         51   -4.1190    2.0000                                                                                                           
               292 U9     5d0    ( 0.9847) 298 U9     5d1+   (-0.1506)
         52   -4.1100    2.0000                                                                                                           
               286 U9     5d1-   ( 0.7608) 298 U9     5d1+   ( 0.6399)
         53   -4.1095    2.0000                                                                                                           
               286 U9     5d1-   (-0.6373) 292 U9     5d0    ( 0.1578) 298 U9     5d1+   ( 0.7481)
         54   -4.1015    2.0000                                                                                                           
               280 U9     5d2-   ( 0.2535) 304 U9     5d2+   ( 0.9625)
         55   -4.1011    2.0000                                                                                                           
               280 U9     5d2-   ( 0.9624) 304 U9     5d2+   (-0.2538)
         56   -2.0416    2.0000                                                                                                           
               250 U9     6s     ( 0.9686)
         57   -1.2791    2.0000                                                                                                           
               274 U9     6pz    ( 0.5278) 366 O10    2s     ( 0.4342) 375 O10    2pz    (-0.1213) 470 O14    2s     (-0.4418)
               479 O14    2pz    (-0.1215)
         58   -1.2742    2.0000                                                                                                           
               183 S7     3s     ( 0.3486) 216 O8     2s     ( 0.4932) 396 O11    2s     ( 0.4758)
         59   -1.1632    2.0000                                                                                                           
               187 S7     3px    ( 0.2055) 216 O8     2s     (-0.5854) 396 O11    2s     ( 0.5917)
         60   -1.1283    2.0000                                                                                                           
               258 U9     6px    (-0.2453) 266 U9     6py    (-0.2463) 426 O12    2s     ( 0.7667) 455 H13    1s     ( 0.1389)
      
         61   -1.0666    2.0000                                                                                                           
                 2 C1     2s     ( 0.1841)  32 C2     2s     ( 0.1322)  62 C3     2s     ( 0.1811)  92 C4     2s     ( 0.1742)
               122 C5     2s     ( 0.1548) 152 C6     2s     ( 0.1797) 250 U9     6s     (-0.2090) 258 U9     6px    ( 0.1203)
               266 U9     6py    (-0.1336) 366 O10    2s     ( 0.5270) 470 O14    2s     ( 0.5143)
         62   -1.0633    2.0000                                                                                                           
                 2 C1     2s     ( 0.2569)  32 C2     2s     ( 0.1810)  62 C3     2s     ( 0.2840)  92 C4     2s     ( 0.2834)
               122 C5     2s     ( 0.2579) 152 C6     2s     ( 0.2795) 250 U9     6s     ( 0.1291) 366 O10    2s     (-0.3368)
               470 O14    2s     (-0.3319)
         63   -0.9646    2.0000                                                                                                           
               183 S7     3s     (-0.1114) 258 U9     6px    (-0.6196) 266 U9     6py    ( 0.6624) 366 O10    2s     ( 0.1555)
               470 O14    2s     ( 0.1514)
         64   -0.9418    2.0000                                                                                                           
                32 C2     2s     (-0.2036)  62 C3     2s     (-0.1481)  92 C4     2s     ( 0.1144) 122 C5     2s     ( 0.2462)
               152 C6     2s     ( 0.1528) 183 S7     3s     (-0.1160) 258 U9     6px    ( 0.6338) 266 U9     6py    ( 0.4367)
               426 O12    2s     ( 0.3170)
         65   -0.9307    2.0000                                                                                                           
                 2 C1     2s     ( 0.1099)  32 C2     2s     ( 0.3596)  62 C3     2s     ( 0.3728)  92 C4     2s     (-0.1242)
               122 C5     2s     (-0.4671) 152 C6     2s     (-0.3414) 216 O8     2s     (-0.1043) 258 U9     6px    ( 0.1998)
               266 U9     6py    ( 0.4000) 396 O11    2s     (-0.1117) 426 O12    2s     ( 0.1687)
         66   -0.9251    2.0000                                                                                                           
                 2 C1     2s     ( 0.5610)  32 C2     2s     ( 0.1418)  62 C3     2s     (-0.3883)  92 C4     2s     (-0.5345)
               122 C5     2s     (-0.1244) 152 C6     2s     ( 0.4373)
         67   -0.7760    2.0000                                                                                                           
                 2 C1     2s     (-0.2567)  32 C2     2s     ( 0.1545)  41 C2     2pz    (-0.1568)  62 C3     2s     (-0.2021)
                92 C4     2s     (-0.1270) 101 C4     2pz    ( 0.1073) 122 C5     2s     ( 0.3822) 183 S7     3s     ( 0.4795)
               191 S7     3py    ( 0.1424) 216 O8     2s     (-0.2934) 266 U9     6py    ( 0.1252) 396 O11    2s     (-0.2946)
               527 H17    1s     ( 0.1256)
         68   -0.7595    2.0000                                                                                                           
               274 U9     6pz    ( 0.7101) 321 U9     5f0    (-0.1043) 366 O10    2s     (-0.5442) 375 O10    2pz    (-0.1717)
               470 O14    2s     ( 0.5510) 479 O14    2pz    (-0.1656)
         69   -0.7366    2.0000                                                                                                           
                 2 C1     2s     (-0.3683)  11 C1     2pz    ( 0.1186)  38 C2     2py    ( 0.1889)  62 C3     2s     ( 0.4010)
                92 C4     2s     (-0.3582) 101 C4     2pz    (-0.1157) 128 C5     2py    (-0.1763) 152 C6     2s     ( 0.4043)
               499 H15    1s     ( 0.1594) 513 H16    1s     (-0.1380) 541 H18    1s     ( 0.1512) 555 H19    1s     (-0.1042)
      
         70   -0.6905    2.0000                                                                                                           
                 2 C1     2s     ( 0.1065)  11 C1     2pz    ( 0.1428)  32 C2     2s     (-0.3209)  41 C2     2pz    (-0.1482)
                68 C3     2py    ( 0.1802)  92 C4     2s     ( 0.2633) 101 C4     2pz    (-0.1145) 122 C5     2s     (-0.2908)
               152 C6     2s     ( 0.2285) 158 C6     2py    (-0.1533) 183 S7     3s     ( 0.4310) 216 O8     2s     (-0.2644)
               219 O8     2px    ( 0.1086) 222 O8     2py    ( 0.1071) 396 O11    2s     (-0.2657) 399 O11    2px    (-0.1093)
               513 H16    1s     ( 0.1583) 527 H17    1s     (-0.1151) 541 H18    1s     ( 0.1261)
         71   -0.6079    2.0000                                                                                                           
                 8 C1     2py    (-0.1938)  71 C3     2pz    (-0.2094)  98 C4     2py    ( 0.2052) 128 C5     2py    ( 0.1174)
               131 C5     2pz    ( 0.2396) 161 C6     2pz    ( 0.1619) 183 S7     3s     (-0.2033) 195 S7     3pz    ( 0.1289)
               216 O8     2s     ( 0.1398) 219 O8     2px    (-0.1025) 396 O11    2s     ( 0.1394) 499 H15    1s     ( 0.2123)
               513 H16    1s     ( 0.1615) 527 H17    1s     ( 0.2717) 541 H18    1s     ( 0.1446) 555 H19    1s     ( 0.1771)
      
         72   -0.5445    2.0000                                                                                                           
                 2 C1     2s     (-0.2533)   8 C1     2py    ( 0.1184)  32 C2     2s     ( 0.1995)  62 C3     2s     (-0.1853)
                71 C3     2pz    ( 0.1395)  92 C4     2s     ( 0.2145)  98 C4     2py    ( 0.1410) 122 C5     2s     (-0.2172)
               128 C5     2py    (-0.1144) 152 C6     2s     ( 0.2226) 161 C6     2pz    ( 0.1848) 183 S7     3s     (-0.1328)
               191 S7     3py    ( 0.1197) 195 S7     3pz    ( 0.2374) 216 O8     2s     ( 0.1367) 219 O8     2px    (-0.1533)
               225 O8     2pz    ( 0.1327) 396 O11    2s     ( 0.1275) 399 O11    2px    ( 0.1210) 405 O11    2pz    ( 0.1526)
               499 H15    1s     (-0.2214) 513 H16    1s     ( 0.2051) 527 H17    1s     (-0.1841) 541 H18    1s     ( 0.2339)
               555 H19    1s     (-0.1513)
         73   -0.5403    2.0000                                                                                                           
                11 C1     2pz    (-0.2815)  38 C2     2py    (-0.2857)  41 C2     2pz    ( 0.1335)  68 C3     2py    ( 0.2802)
                71 C3     2pz    ( 0.1506) 101 C4     2pz    (-0.3102) 128 C5     2py    (-0.2697) 131 C5     2pz    ( 0.1405)
               158 C6     2py    ( 0.2707) 161 C6     2pz    ( 0.1380) 191 S7     3py    (-0.1429) 219 O8     2px    ( 0.1147)
               399 O11    2px    (-0.1214)
         74   -0.5094    2.0000                                                                                                           
                 8 C1     2py    ( 0.1596)  32 C2     2s     ( 0.1781)  38 C2     2py    ( 0.1012)  41 C2     2pz    ( 0.2490)
                68 C3     2py    (-0.1323)  98 C4     2py    ( 0.2160) 122 C5     2s     (-0.1258) 131 C5     2pz    ( 0.2466)
               158 C6     2py    (-0.1034) 161 C6     2pz    ( 0.1220) 191 S7     3py    (-0.1778) 195 S7     3pz    (-0.2069)
               216 O8     2s     (-0.1267) 219 O8     2px    ( 0.2041) 225 O8     2pz    (-0.1827) 399 O11    2px    (-0.1458)
               405 O11    2pz    (-0.2047) 499 H15    1s     (-0.1520) 513 H16    1s     ( 0.2083) 527 H17    1s     ( 0.2198)
               541 H18    1s     ( 0.1542) 555 H19    1s     (-0.1621)
         75   -0.4983    2.0000                                                                                                           
                 8 C1     2py    ( 0.2618)  38 C2     2py    (-0.1239)  62 C3     2s     (-0.1064)  68 C3     2py    ( 0.1366)
                71 C3     2pz    (-0.2286)  98 C4     2py    ( 0.2780) 128 C5     2py    (-0.1602) 158 C6     2py    ( 0.1781)
               161 C6     2pz    (-0.2368) 191 S7     3py    ( 0.1169) 216 O8     2s     ( 0.1104) 219 O8     2px    (-0.1387)
               402 O11    2py    ( 0.1092) 499 H15    1s     ( 0.2365) 513 H16    1s     ( 0.2626) 541 H18    1s     (-0.2708)
               555 H19    1s     (-0.2436)
         76   -0.4934    2.0000                                                                                                           
               187 S7     3px    ( 0.4416) 216 O8     2s     ( 0.2959) 219 O8     2px    (-0.1868) 222 O8     2py    (-0.4172)
               396 O11    2s     (-0.3307) 399 O11    2px    (-0.2282) 402 O11    2py    ( 0.4148)
         77   -0.4760    2.0000                                                                                                           
                71 C3     2pz    (-0.1805) 101 C4     2pz    ( 0.1626) 183 S7     3s     (-0.1780) 191 S7     3py    (-0.3196)
               195 S7     3pz    ( 0.2456) 219 O8     2px    ( 0.2970) 222 O8     2py    (-0.2018) 225 O8     2pz    ( 0.2525)
               396 O11    2s     (-0.1540) 399 O11    2px    (-0.3599) 402 O11    2py    (-0.1377) 405 O11    2pz    ( 0.1818)
               499 H15    1s     ( 0.1194)
         78   -0.4496    2.0000                                                                                                           
               191 S7     3py    ( 0.1002) 426 O12    2s     ( 0.3586) 429 O12    2px    ( 0.1502) 432 O12    2py    ( 0.2218)
               435 O12    2pz    ( 0.5893) 455 H13    1s     (-0.4043) 473 O14    2px    ( 0.1133) 476 O14    2py    ( 0.1244)
      
         79   -0.4290    2.0000                                                                                                           
                 8 C1     2py    (-0.1916)  11 C1     2pz    (-0.2371)  71 C3     2pz    (-0.2185) 101 C4     2pz    ( 0.2393)
               128 C5     2py    (-0.1649) 131 C5     2pz    (-0.2832) 158 C6     2py    ( 0.1788) 161 C6     2pz    ( 0.2609)
               195 S7     3pz    (-0.1449) 222 O8     2py    (-0.1057) 225 O8     2pz    (-0.2400) 402 O11    2py    (-0.1133)
               405 O11    2pz    (-0.2189) 435 O12    2pz    (-0.1278) 499 H15    1s     ( 0.1241) 527 H17    1s     (-0.3301)
               541 H18    1s     ( 0.1182) 555 H19    1s     ( 0.1796)
         80   -0.4176    2.0000                                                                                                           
                 5 C1     2px    (-0.2563)  35 C2     2px    (-0.2899)  65 C3     2px    (-0.2885)  95 C4     2px    (-0.2903)
               125 C5     2px    (-0.2800) 155 C6     2px    (-0.2708) 225 O8     2pz    ( 0.1371) 405 O11    2pz    (-0.1584)
      
         81   -0.4053    2.0000                                                                                                           
                 8 C1     2py    ( 0.2590)  11 C1     2pz    (-0.1587)  38 C2     2py    (-0.2871)  41 C2     2pz    ( 0.1638)
                68 C3     2py    ( 0.2496)  71 C3     2pz    (-0.1370)  98 C4     2py    (-0.2336) 101 C4     2pz    ( 0.1628)
               128 C5     2py    ( 0.2780) 131 C5     2pz    (-0.1550) 158 C6     2py    (-0.2611) 161 C6     2pz    ( 0.1411)
               372 O10    2py    (-0.1277) 499 H15    1s     ( 0.2439) 513 H16    1s     (-0.2287) 541 H18    1s     ( 0.2632)
               555 H19    1s     (-0.2409)
         82   -0.3680    2.0000                                                                                                           
               125 C5     2px    ( 0.1113) 191 S7     3py    (-0.1551) 222 O8     2py    ( 0.1927) 225 O8     2pz    ( 0.4919)
               293 U9     6d0    ( 0.1125) 299 U9     6d1+   (-0.1453) 369 O10    2px    (-0.2904) 375 O10    2pz    (-0.1335)
               402 O11    2py    ( 0.1597) 405 O11    2pz    (-0.3612) 429 O12    2px    (-0.1387) 432 O12    2py    (-0.1171)
               473 O14    2px    ( 0.1838) 479 O14    2pz    ( 0.2630)
         83   -0.3608    2.0000                                                                                                           
                38 C2     2py    ( 0.1095)  68 C3     2py    (-0.1014) 191 S7     3py    (-0.2355) 222 O8     2py    ( 0.2629)
               225 O8     2pz    (-0.2832) 293 U9     6d0    ( 0.1985) 366 O10    2s     (-0.1190) 375 O10    2pz    (-0.2665)
               402 O11    2py    ( 0.2591) 405 O11    2pz    ( 0.4528) 429 O12    2px    (-0.1334) 435 O12    2pz    ( 0.1580)
               470 O14    2s     (-0.1096) 473 O14    2px    (-0.1389) 479 O14    2pz    ( 0.2898)
         84   -0.3507    2.0000                                                                                                           
                41 C2     2pz    (-0.1486) 195 S7     3pz    ( 0.1019) 219 O8     2px    ( 0.2022) 222 O8     2py    (-0.2669)
               287 U9     6d1-   (-0.1761) 369 O10    2px    (-0.1308) 372 O10    2py    (-0.5240) 375 O10    2pz    (-0.1840)
               402 O11    2py    (-0.1354) 429 O12    2px    (-0.1877) 432 O12    2py    (-0.2425) 476 O14    2py    ( 0.3065)
               479 O14    2pz    ( 0.1476)
         85   -0.3403    2.0000                                                                                                           
               219 O8     2px    ( 0.2114) 222 O8     2py    (-0.1728) 225 O8     2pz    (-0.2688) 299 U9     6d1+   (-0.1738)
               369 O10    2px    (-0.4250) 372 O10    2py    ( 0.1523) 399 O11    2px    ( 0.1570) 405 O11    2pz    ( 0.2551)
               432 O12    2py    (-0.1182) 473 O14    2px    ( 0.4372) 476 O14    2py    (-0.3098)
         86   -0.3335    2.0000                                                                                                           
               191 S7     3py    ( 0.1851) 219 O8     2px    ( 0.1781) 222 O8     2py    (-0.3139) 250 U9     6s     (-0.2137)
               287 U9     6d1-   ( 0.1214) 293 U9     6d0    ( 0.1536) 366 O10    2s     (-0.1292) 369 O10    2px    ( 0.2186)
               372 O10    2py    ( 0.2478) 375 O10    2pz    (-0.4188) 399 O11    2px    ( 0.1328) 402 O11    2py    (-0.1277)
               405 O11    2pz    (-0.1533) 429 O12    2px    ( 0.1405) 470 O14    2s     (-0.1316) 473 O14    2px    (-0.1389)
               476 O14    2py    (-0.2701) 479 O14    2pz    ( 0.4128)
         87   -0.3323    2.0000                                                                                                           
               187 S7     3px    ( 0.1241) 198 S7     3d2-   (-0.1350) 216 O8     2s     ( 0.1538) 219 O8     2px    (-0.4423)
               222 O8     2py    ( 0.1460) 225 O8     2pz    (-0.2078) 369 O10    2px    (-0.2469) 375 O10    2pz    (-0.1740)
               399 O11    2px    (-0.4882) 402 O11    2py    (-0.4855) 473 O14    2px    ( 0.1136) 479 O14    2pz    ( 0.1492)
      
         88   -0.3134    2.0000                                                                                                           
               317 U9     5f1-   (-0.1357) 321 U9     5f0    (-0.1061) 325 U9     5f1+   (-0.1296) 369 O10    2px    (-0.1473)
               372 O10    2py    (-0.1424) 375 O10    2pz    ( 0.1685) 402 O11    2py    (-0.1027) 426 O12    2s     ( 0.1070)
               429 O12    2px    (-0.1558) 432 O12    2py    (-0.3757) 435 O12    2pz    ( 0.2962) 473 O14    2px    (-0.4810)
               476 O14    2py    (-0.4863)
         89   -0.3024    2.0000                                                                                                           
               258 U9     6px    (-0.1342) 317 U9     5f1-   (-0.1461) 325 U9     5f1+   ( 0.1420) 369 O10    2px    ( 0.3936)
               372 O10    2py    (-0.3187) 429 O12    2px    (-0.4643) 432 O12    2py    ( 0.2695) 473 O14    2px    ( 0.3228)
               476 O14    2py    (-0.3716)
         90   -0.2923    2.0000                                                                                                           
               222 O8     2py    (-0.1548) 258 U9     6px    ( 0.1690) 266 U9     6py    (-0.1643) 325 U9     5f1+   (-0.1035)
               369 O10    2px    (-0.2777) 372 O10    2py    ( 0.2480) 429 O12    2px    (-0.5910) 432 O12    2py    ( 0.4498)
               473 O14    2px    (-0.3015) 476 O14    2py    ( 0.1372)
         91   -0.2827    2.0000                                                                                                           
               258 U9     6px    (-0.2206) 266 U9     6py    (-0.2777) 321 U9     5f0    (-0.1335) 369 O10    2px    ( 0.3308)
               372 O10    2py    ( 0.4298) 375 O10    2pz    ( 0.2133) 402 O11    2py    (-0.1832) 429 O12    2px    (-0.3194)
               432 O12    2py    (-0.4635) 435 O12    2pz    ( 0.1919) 473 O14    2px    ( 0.1654) 476 O14    2py    ( 0.2524)
      
         92   -0.2572    2.0000                                                                                                           
                41 C2     2pz    ( 0.1690) 183 S7     3s     ( 0.1911) 191 S7     3py    ( 0.2127) 195 S7     3pz    (-0.3188)
               225 O8     2pz    ( 0.2164) 274 U9     6pz    ( 0.3752) 321 U9     5f0    (-0.4300) 372 O10    2py    (-0.1411)
               375 O10    2pz    ( 0.3690) 402 O11    2py    (-0.1147) 405 O11    2pz    ( 0.2512) 429 O12    2px    ( 0.1206)
               432 O12    2py    ( 0.1250) 435 O12    2pz    (-0.1624) 476 O14    2py    ( 0.1275) 479 O14    2pz    ( 0.4340)
      
         93   -0.2488    2.0000                                                                                                           
                 5 C1     2px    (-0.1544)  35 C2     2px    ( 0.3086)  65 C3     2px    ( 0.4703)  95 C4     2px    ( 0.1539)
               125 C5     2px    (-0.3174) 155 C6     2px    (-0.4653) 405 O11    2pz    (-0.1122)
         94   -0.2414    2.0000                                                                                                           
                 5 C1     2px    (-0.4475)  35 C2     2px    (-0.3789)  95 C4     2px    ( 0.4547) 125 C5     2px    ( 0.3321)
               155 C6     2px    (-0.1514) 225 O8     2pz    (-0.1028) 405 O11    2pz    ( 0.1818)
         95   -0.2342    2.0000                                                                                                           
                32 C2     2s     ( 0.1097)  38 C2     2py    (-0.1015)  41 C2     2pz    (-0.2225) 183 S7     3s     (-0.2592)
               191 S7     3py    (-0.2763) 195 S7     3pz    ( 0.4313) 200 S7     3d1-   ( 0.1179) 222 O8     2py    ( 0.1269)
               225 O8     2pz    (-0.4232) 274 U9     6pz    ( 0.3229) 321 U9     5f0    (-0.3149) 375 O10    2pz    ( 0.3224)
               402 O11    2py    ( 0.1592) 405 O11    2pz    (-0.3995) 479 O14    2pz    ( 0.3048)
         96    0.0000    0.2500                                                                                                           
               309 U9     5f3-   (-0.6683) 313 U9     5f2-   ( 0.5280) 317 U9     5f1-   ( 0.1374) 329 U9     5f2+   ( 0.3789)
               333 U9     5f3+   (-0.3149)
         97    0.0000    0.2500                                                                                                           
               309 U9     5f3-   ( 0.3134) 313 U9     5f2-   ( 0.5822) 329 U9     5f2+   (-0.6178) 333 U9     5f3+   (-0.3985)
      
         98    0.0000    0.2500                                                                                                           
               309 U9     5f3-   ( 0.2662) 313 U9     5f2-   ( 0.5924) 329 U9     5f2+   ( 0.2380) 333 U9     5f3+   ( 0.7060)
      
         99    0.0000    0.2500                                                                                                           
               309 U9     5f3-   (-0.6021) 325 U9     5f1+   (-0.1627) 329 U9     5f2+   (-0.6264) 333 U9     5f3+   ( 0.4460)
      
        100    0.1266    0.0000                                                                                                           
                62 C3     2s     (-0.3766)  63 C3     3s     (-0.1986)  71 C3     2pz    ( 0.1384)  91 C4     1s     (-0.2402)
                92 C4     2s     (-1.4644)  93 C4     3s     (-0.7848)  94 C4     4s     (-0.1160)  98 C4     2py    (-0.6667)
                99 C4     3py    (-0.3960) 112 C4     3d2+   ( 0.1096) 121 C5     1s     (-0.2276) 122 C5     2s     (-1.3929)
               123 C5     3s     (-0.7480) 124 C5     4s     (-0.1114) 128 C5     2py    (-0.2857) 129 C5     3py    (-0.1693)
               131 C5     2pz    (-0.5868) 132 C5     3pz    (-0.3463) 152 C6     2s     (-0.5327) 153 C6     3s     (-0.2823)
               158 C6     2py    ( 0.1243) 161 C6     2pz    (-0.1694) 499 H15    1s     ( 0.3170) 500 H15    2s     ( 0.1615)
               513 H16    1s     ( 1.6143) 514 H16    2s     ( 1.2240) 518 H16    2py    (-0.4089) 519 H16    3py    (-0.2498)
               527 H17    1s     ( 1.5399) 528 H17    2s     ( 1.1478) 532 H17    2py    (-0.2009) 533 H17    3py    (-0.1244)
               534 H17    2pz    (-0.3414) 535 H17    3pz    (-0.2073) 541 H18    1s     ( 0.4859) 542 H18    2s     ( 0.3120)
               548 H18    2pz    (-0.1347) 555 H19    1s     (-0.1010) 556 H19    2s     (-0.1982)
        101    0.1420    0.0000                                                                                                           
                 2 C1     2s     (-0.2081)   3 C1     3s     (-0.1093)  32 C2     2s     ( 0.2743)  33 C2     3s     ( 0.1376)
                61 C3     1s     (-0.1430)  62 C3     2s     (-0.8637)  63 C3     3s     (-0.4688)  68 C3     2py    (-0.1697)
                69 C3     3py    (-0.1044)  71 C3     2pz    ( 0.4459)  72 C3     3pz    ( 0.2545)  91 C4     1s     (-0.2607)
                92 C4     2s     (-1.5511)  93 C4     3s     (-0.8283)  94 C4     4s     (-0.1143)  98 C4     2py    (-0.6063)
                99 C4     3py    (-0.3755) 121 C5     1s     ( 0.2589) 122 C5     2s     ( 1.5357) 123 C5     3s     ( 0.8178)
               124 C5     4s     ( 0.1122) 128 C5     2py    ( 0.2970) 129 C5     3py    ( 0.1816) 131 C5     2pz    ( 0.5014)
               132 C5     3pz    ( 0.3134) 151 C6     1s     ( 0.1585) 152 C6     2s     ( 0.9565) 153 C6     3s     ( 0.5174)
               158 C6     2py    (-0.3735) 159 C6     3py    (-0.2155) 161 C6     2pz    ( 0.3552) 162 C6     3pz    ( 0.2135)
               191 S7     3py    (-0.1764) 192 S7     4py    (-0.1713) 251 U9     7s     (-0.2562) 267 U9     7py    (-0.2073)
               499 H15    1s     ( 1.0077) 500 H15    2s     ( 0.7223) 504 H15    2py    (-0.1843) 505 H15    3py    (-0.1170)
               506 H15    2pz    ( 0.2084) 507 H15    3pz    ( 0.1226) 513 H16    1s     ( 1.8195) 514 H16    2s     ( 1.6093)
               515 H16    3s     ( 0.1512) 518 H16    2py    (-0.4117) 519 H16    3py    (-0.2576) 527 H17    1s     (-1.7743)
               528 H17    2s     (-1.5729) 529 H17    3s     (-0.1500) 532 H17    2py    ( 0.1304) 534 H17    2pz    ( 0.3782)
               535 H17    3pz    ( 0.2392) 541 H18    1s     (-1.1092) 542 H18    2s     (-0.8058) 546 H18    2py    (-0.1339)
               548 H18    2pz    ( 0.2663) 549 H18    3pz    ( 0.1646) 555 H19    1s     ( 0.1184) 556 H19    2s     ( 0.2605)
      
--
 
      Von Neumann Entropy (Root  1) =  0.50000
 

      Mulliken population analysis for root number:  1
      -----------------------------------------------
 
 
++    Molecular charges:
      ------------------
 
      Mulliken charges per centre and basis function type
      ---------------------------------------------------
 
                C1      C2      C3      C4      C5      C6      S7      O8      U9      O10     O11     O12   
      1s       2.0050  2.0031  2.0036  2.0032  2.0032  2.0035  2.0000  1.9990  2.0000  1.9996  1.9989  1.9998
      2s       1.5827  1.1913  1.5289  1.5310  1.5101  1.5766  1.9983  1.8632  2.0000  1.8960  1.8711  1.8236
      2px      0.8630  0.9567  0.9244  0.9588  0.9305  0.9428  2.0015  1.4516  2.0000  1.6721  1.4189  1.7829
      2pz      0.7726  0.8874  0.8842  0.7815  0.8822  0.8947  2.0003  1.8357  2.0000  1.4908  1.8214  1.4507
      2py      0.9294  0.8204  0.8275  0.9072  0.8188  0.8185  2.0006  1.5259  2.0000  1.6888  1.5729  1.7489
      3s      -0.0147 -0.0299 -0.0165 -0.0242 -0.0321 -0.0181  1.5642  0.0025  2.0000  0.0066  0.0034 -0.0150
      3px      0.0026  0.0012  0.0050  0.0061  0.0064  0.0070  0.6713 -0.0003  2.0000  0.0091  0.0006  0.0103
      3pz     -0.0456 -0.0240 -0.0383 -0.0667 -0.0425 -0.0402  1.2058 -0.0185  2.0000 -0.0191 -0.0201 -0.0078
      3py     -0.0349 -0.0516 -0.0402 -0.0371 -0.0591 -0.0560  1.0345 -0.0053  2.0000 -0.0003 -0.0064  0.0088
      4s       0.0021  0.0061  0.0014  0.0011  0.0006  0.0013  0.0075  0.0059  2.0000  0.0040  0.0062 -0.0001
      3d2+     0.0162  0.0067  0.0077  0.0165  0.0061  0.0063  0.1876  0.0085  2.0000  0.0006  0.0090  0.0016
      3d1+     0.0219  0.0135  0.0119  0.0233  0.0115  0.0122  0.1284  0.0063  2.0000  0.0085  0.0066  0.0018
      3d0      0.0201  0.0162  0.0093  0.0207  0.0124  0.0107  0.0984  0.0032  2.0000  0.0086  0.0033  0.0095
      3d1-     0.0019  0.0307  0.0252  0.0023  0.0209  0.0257  0.1630  0.0028  2.0000  0.0085  0.0024  0.0026
      3d2-     0.0108  0.0219  0.0218  0.0076  0.0212  0.0176  0.1802  0.0098  2.0000  0.0001  0.0096  0.0019
      4px     -0.0012 -0.0011 -0.0011 -0.0011 -0.0010 -0.0010  0.0300  0.0018  2.0000  0.0005  0.0014  0.0003
      4pz     -0.0020  0.0003 -0.0013 -0.0026 -0.0009 -0.0012 -0.0068 -0.0004  2.0000  0.0013 -0.0010 -0.0004
      4py     -0.0012 -0.0009 -0.0020 -0.0006 -0.0022 -0.0017  0.0008  0.0019  2.0000 -0.0018  0.0004  0.0006
      5s       0.0000  0.0000  0.0000  0.0000  0.0000  0.0000  0.0058  0.0000  2.0009  0.0000  0.0000  0.0000
      4d2+    -0.0003 -0.0046 -0.0033 -0.0005 -0.0052 -0.0051  0.0007  0.0021  2.0000  0.0001  0.0021  0.0007
      4d1+     0.0009  0.0013 -0.0001  0.0009  0.0000  0.0004  0.0011  0.0012  2.0000  0.0015  0.0011  0.0001
      4d0     -0.0044 -0.0054 -0.0066 -0.0067 -0.0059 -0.0067 -0.0001  0.0002  2.0000 -0.0015  0.0003  0.0005
      4d1-    -0.0113 -0.0024 -0.0063 -0.0109 -0.0070 -0.0057  0.0047  0.0004  2.0000  0.0016  0.0002 -0.0000
      4d2-     0.0006  0.0010  0.0015 -0.0003  0.0008  0.0002  0.0014  0.0009  2.0000 -0.0000  0.0008  0.0001
      5px      0.0000  0.0000  0.0000  0.0000  0.0000  0.0000 -0.0023  0.0000  2.0001  0.0000  0.0000  0.0000
      5pz      0.0000  0.0000  0.0000  0.0000  0.0000  0.0000 -0.0005  0.0000  1.9992  0.0000  0.0000  0.0000
      5py      0.0000  0.0000  0.0000  0.0000  0.0000  0.0000 -0.0015  0.0000  1.9999  0.0000  0.0000  0.0000
      6s       0.0000  0.0000  0.0000  0.0000  0.0000  0.0000  0.0000  0.0000  1.9824  0.0000  0.0000  0.0000
      4f3+     0.0008  0.0036  0.0037  0.0008  0.0036  0.0034  0.0370  0.0010  2.0000 -0.0000  0.0010  0.0002
      4f2+     0.0014  0.0036  0.0034  0.0015  0.0029  0.0033  0.0043  0.0000  2.0000  0.0001  0.0001  0.0001
      4f1+     0.0031  0.0024  0.0020  0.0032  0.0017  0.0020  0.0101  0.0004  2.0000  0.0009  0.0004  0.0002
      4f0      0.0051  0.0051  0.0038  0.0048  0.0039  0.0039  0.0205  0.0006  2.0000  0.0010  0.0005  0.0004
      4f1-     0.0023  0.0023  0.0029  0.0021  0.0026  0.0029  0.0093  0.0003  2.0000  0.0010  0.0003  0.0004
      4f2-     0.0032  0.0020  0.0014  0.0029  0.0018  0.0013  0.0238  0.0007  2.0000  0.0000  0.0006  0.0002
      4f3-     0.0011  0.0000  0.0001  0.0012 -0.0001 -0.0001  0.0208  0.0007  2.0000  0.0000  0.0007  0.0002
      5d2+     0.0000  0.0000  0.0000  0.0000  0.0000  0.0000  0.0000  0.0000  1.9998  0.0000  0.0000  0.0000
      5d1+     0.0000  0.0000  0.0000  0.0000  0.0000  0.0000  0.0000  0.0000  1.9993  0.0000  0.0000  0.0000
      5d0      0.0000  0.0000  0.0000  0.0000  0.0000  0.0000  0.0000  0.0000  1.9983  0.0000  0.0000  0.0000
      5d1-     0.0000  0.0000  0.0000  0.0000  0.0000  0.0000  0.0000  0.0000  1.9994  0.0000  0.0000  0.0000
      5d2-     0.0000  0.0000  0.0000  0.0000  0.0000  0.0000  0.0000  0.0000  1.9998  0.0000  0.0000  0.0000
      6px      0.0000  0.0000  0.0000  0.0000  0.0000  0.0000  0.0000  0.0000  1.9700  0.0000  0.0000  0.0000
      6pz      0.0000  0.0000  0.0000  0.0000  0.0000  0.0000  0.0000  0.0000  1.8271  0.0000  0.0000  0.0000
      6py      0.0000  0.0000  0.0000  0.0000  0.0000  0.0000  0.0000  0.0000  1.9687  0.0000  0.0000  0.0000
      7s       0.0000  0.0000  0.0000  0.0000  0.0000  0.0000  0.0000  0.0000  0.0810  0.0000  0.0000  0.0000
      5f3+     0.0000  0.0000  0.0000  0.0000  0.0000  0.0000  0.0000  0.0000  0.0543  0.0000  0.0000  0.0000
      5f2+     0.0000  0.0000  0.0000  0.0000  0.0000  0.0000  0.0000  0.0000  0.9535  0.0000  0.0000  0.0000
      5f1+     0.0000  0.0000  0.0000  0.0000  0.0000  0.0000  0.0000  0.0000  0.2610  0.0000  0.0000  0.0000
      5f0      0.0000  0.0000  0.0000  0.0000  0.0000  0.0000  0.0000  0.0000  0.8157  0.0000  0.0000  0.0000
      5f1-     0.0000  0.0000  0.0000  0.0000  0.0000  0.0000  0.0000  0.0000  0.2196  0.0000  0.0000  0.0000
      5f2-     0.0000  0.0000  0.0000  0.0000  0.0000  0.0000  0.0000  0.0000  0.0286  0.0000  0.0000  0.0000
      5f3-     0.0000  0.0000  0.0000  0.0000  0.0000  0.0000  0.0000  0.0000  0.0229  0.0000  0.0000  0.0000
      6d2+     0.0000  0.0000  0.0000  0.0000  0.0000  0.0000  0.0000  0.0000  0.1067  0.0000  0.0000  0.0000
      6d1+     0.0000  0.0000  0.0000  0.0000  0.0000  0.0000  0.0000  0.0000  0.3469  0.0000  0.0000  0.0000
      6d0      0.0000  0.0000  0.0000  0.0000  0.0000  0.0000  0.0000  0.0000  0.3961  0.0000  0.0000  0.0000
      6d1-     0.0000  0.0000  0.0000  0.0000  0.0000  0.0000  0.0000  0.0000  0.3320  0.0000  0.0000  0.0000
      6d2-     0.0000  0.0000  0.0000  0.0000  0.0000  0.0000  0.0000  0.0000  0.1625  0.0000  0.0000  0.0000
      7px      0.0000  0.0000  0.0000  0.0000  0.0000  0.0000  0.0000  0.0000  0.0156  0.0000  0.0000  0.0000
      7pz      0.0000  0.0000  0.0000  0.0000  0.0000  0.0000  0.0000  0.0000  0.0284  0.0000  0.0000  0.0000
      7py      0.0000  0.0000  0.0000  0.0000  0.0000  0.0000  0.0000  0.0000  0.0485  0.0000  0.0000  0.0000
      5g4+     0.0000  0.0000  0.0000  0.0000  0.0000  0.0000  0.0000  0.0000  0.0025  0.0000  0.0000  0.0000
      5g3+     0.0000  0.0000  0.0000  0.0000  0.0000  0.0000  0.0000  0.0000  0.0012  0.0000  0.0000  0.0000
      5g2+     0.0000  0.0000  0.0000  0.0000  0.0000  0.0000  0.0000  0.0000  0.0019  0.0000  0.0000  0.0000
      5g1+     0.0000  0.0000  0.0000  0.0000  0.0000  0.0000  0.0000  0.0000  0.0152  0.0000  0.0000  0.0000
      5g0      0.0000  0.0000  0.0000  0.0000  0.0000  0.0000  0.0000  0.0000  0.0165  0.0000  0.0000  0.0000
      5g1-     0.0000  0.0000  0.0000  0.0000  0.0000  0.0000  0.0000  0.0000  0.0162  0.0000  0.0000  0.0000
      5g2-     0.0000  0.0000  0.0000  0.0000  0.0000  0.0000  0.0000  0.0000  0.0031  0.0000  0.0000  0.0000
      5g3-     0.0000  0.0000  0.0000  0.0000  0.0000  0.0000  0.0000  0.0000  0.0004  0.0000  0.0000  0.0000
      5g4-     0.0000  0.0000  0.0000  0.0000  0.0000  0.0000  0.0000  0.0000  0.0037  0.0000  0.0000  0.0000
      6f3+     0.0000  0.0000  0.0000  0.0000  0.0000  0.0000  0.0000  0.0000  0.0230  0.0000  0.0000  0.0000
      6f2+     0.0000  0.0000  0.0000  0.0000  0.0000  0.0000  0.0000  0.0000  0.0077  0.0000  0.0000  0.0000
      6f1+     0.0000  0.0000  0.0000  0.0000  0.0000  0.0000  0.0000  0.0000  0.0631  0.0000  0.0000  0.0000
      6f0      0.0000  0.0000  0.0000  0.0000  0.0000  0.0000  0.0000  0.0000  0.0339  0.0000  0.0000  0.0000
      6f1-     0.0000  0.0000  0.0000  0.0000  0.0000  0.0000  0.0000  0.0000  0.0702  0.0000  0.0000  0.0000
      6f2-     0.0000  0.0000  0.0000  0.0000  0.0000  0.0000  0.0000  0.0000  0.0134  0.0000  0.0000  0.0000
      6f3-     0.0000  0.0000  0.0000  0.0000  0.0000  0.0000  0.0000  0.0000  0.0186  0.0000  0.0000  0.0000
      6g4+     0.0000  0.0000  0.0000  0.0000  0.0000  0.0000  0.0000  0.0000  0.0029  0.0000  0.0000  0.0000
      6g3+     0.0000  0.0000  0.0000  0.0000  0.0000  0.0000  0.0000  0.0000  0.0021  0.0000  0.0000  0.0000
      6g2+     0.0000  0.0000  0.0000  0.0000  0.0000  0.0000  0.0000  0.0000  0.0019  0.0000  0.0000  0.0000
[...]
 
 
      ********************************************************************************
      *                                                                              *
      *                             General data section                             *
      *                                                                              *
      ********************************************************************************
 
   Specific data for JOBIPH file 
 JOB001                                                                         
                                                  
   -------------------------------------
 
   Header from SEWARD:
                                                                               
        Integrals generated by seward 4.2.0  , Tue Dec 17 20:14:52 2019        
 
   CASSCF title (first line only):
       (No title given)                                                        
 
   STATE IRREP:                             1
   SPIN MULTIPLICITY:                       2
   ACTIVE ELECTRONS:                        1
   MAX RAS1 HOLES:                          0
   MAX RAS3 ELECTRONS:                      0
   NR OF CONFIG:                            4
 
   The following data are common to all the states:
   ------------------------------------------------
   (note: frozen counts as inactive, deleted as secondary)
 
      NR of irreps: 1
 
                 Total     No./Irrep 
      Irrep                  1
                             a
 
      INACTIVE      95      95
      ACTIVE         4       4
      SECONDARY    469     469
      BASIS        568     568
 
      RAS1           0       0
      RAS2           4       4
      RAS3           0       0
 
        MATRIX ELEMENTS WILL BE COMPUTED FOR THE FOLLOWING ONE-ELECTRON OPERATOR
 S, UNLESS ZERO BY SYMMETRY.
   (Herm=Hermitian, Anti=Antihermitian, Sing=Singlet operator, Trip=Triplet oper
 ator)
     MLTPL  1   1 (HERMSING)     MLTPL  1   2 (HERMSING)     MLTPL  1   3 (HERMSING)
     MLTPL  2   1 (HERMSING)     MLTPL  2   2 (HERMSING)     MLTPL  2   3 (HERMSING)
     MLTPL  2   4 (HERMSING)     MLTPL  2   5 (HERMSING)     MLTPL  2   6 (HERMSING)
     VELOCITY   1 (ANTISING)     VELOCITY   2 (ANTISING)     VELOCITY   3 (ANTISING)
     ANGMOM     1 (ANTISING)     ANGMOM     2 (ANTISING)     ANGMOM     3 (ANTISING)
     AMFI       1 (ANTITRIP)     AMFI       2 (ANTITRIP)     AMFI       3 (ANTITRIP)
 
       EIGENSTATES OF A SPIN-FREE HAMILTONIAN WILL BE COMPUTED BASED ON:
 
  a Hamiltonian matrix assumed to be diagonal with energies read from the wavefu
 nction file(s).
  SO coupling elements will be added.
       EIGENSTATES OF SPIN-ORBIT HAMILTONIAN WILL BE COMPUTED
        MATRIX ELEMENTS OVER SPIN EIGENSTATES FOR:
     MLTPL  1   1 (HERMSING)     MLTPL  1   2 (HERMSING)     MLTPL  1   3 (HERMSING)
     MLTPL  2   1 (HERMSING)     MLTPL  2   2 (HERMSING)     MLTPL  2   3 (HERMSING)
     MLTPL  2   4 (HERMSING)     MLTPL  2   5 (HERMSING)     MLTPL  2   6 (HERMSING)
     VELOCITY   1 (ANTISING)     VELOCITY   2 (ANTISING)     VELOCITY   3 (ANTISING)
     ANGMOM     1 (ANTISING)     ANGMOM     2 (ANTISING)     ANGMOM     3 (ANTISING)
 
  Nr of states:                     4
 
   State:        1   2   3   4
  JobIph:        1   1   1   1
 Root nr:        1   2   3   4
 
  HAMILTONIAN MATRIX FOR THE ORIGINAL STATES:
 
  Diagonal, with energies
 -28957.20340650 -28957.19935788 -28957.19915210 -28957.19454569
 
      OVERLAP MATRIX FOR THE ORIGINAL STATES:
 
  Diagonal, with elements
      1.00000000      1.00000000      1.00000000      1.00000000
 
::    RASSI State    1     Total energy: -28957.20340650
::    RASSI State    2     Total energy: -28957.19935788
::    RASSI State    3     Total energy: -28957.19915210
::    RASSI State    4     Total energy: -28957.19454569
 
 
 
      ****************************************************************************************************
      *                                                                                                  *
      *                                         Spin-free section                                        *
      *                                                                                                  *
      *                 Note: index according to input order, order according to energy.                 *
      *                                                                                                  *
      ****************************************************************************************************
 
 
 
  SPIN-FREE ENERGIES:
  (Shifted by EVAC (a.u.) =     -28957.2034064985)
 
 SF State       Relative EVAC(au)   Rel lowest level(eV)    D:o, cm**(-1)
 
     1             0.0000000000        0.0000000000              0.0000
     2             0.0040486194        0.1101685445            888.5692
     3             0.0042544016        0.1157681629            933.7332
     4             0.0088608122        0.2411149822           1944.7235
 
++ Dipole transition strengths (spin-free states):
   -----------------------------------------------
     for osc. strength at least  1.00000000E-05
 
  ( Max oscillator strength is only   6.881631979519610E-006 )
--
 
++ Velocity transition strengths (spin-free states):
   -------------------------------------------------
     for osc. strength at least  1.00000000E-05
 
      From   To        Osc. strength     Einstein coefficients Ax, Ay, Az (sec-1)    Total A (sec-1)
     -----------------------------------------------------------------------------------------------
         1    2       6.53315856E-03  5.16913751E+02  2.87455307E+03  4.92305023E+01  3.44069732E+03
         1    3       1.03050587E-03  1.59851390E+01  7.32291531E+00  5.75981626E+02  5.99289680E+02
         1    4       6.27379630E-04  1.43309721E+02  3.04330725E+02  1.13501674E+03  1.58265719E+03
         2    3       3.54058768E-02  1.14140475E+00  1.11142111E+01  3.59170047E+01  4.81726205E+01
         2    4       3.09927509E-04  2.77182841E-01  8.10968368E+01  1.49223987E+02  2.30598007E+02
         3    4       1.24066789E-02  7.41528004E+02  7.71550786E+03  1.40318432E+00  8.45843905E+03
     -----------------------------------------------------------------------------------------------
--
 
 --------------------------------------------------
 
 A comparison between the dipole oscillator strengths in 
 length and velocity gauge will be performed
 
 All dipole oscillator differences above the tolerance of 
  0.100000000000000       will be printed 
 
 Due to basis set deficiency these oscillator may be problematic 
 
 The tolerance is defined as ABS(1-O_l/O_v) 
 O_l : dipole oscillator strength in length gauge
 O_p : dipole oscillator strength in velocity gauge
 
 --------------------------------------------------
 
  Problematic transitions have been found
 
      From   To      Difference (%)  Osc. st. (len.) Osc. st. (vel.)
      --------------------------------------------------------------
 
         1    2      --------------- below threshold  6.53315856E-03
         1    3      --------------- below threshold  1.03050587E-03
         1    4      --------------- below threshold  6.27379630E-04
         2    3      --------------- below threshold  3.54058768E-02
         2    4      --------------- below threshold  3.09927509E-04
         3    4      --------------- below threshold  1.24066789E-02
      --------------------------------------------------------------
 
 Number of problematic transitions =                      6
 
 Electric-Dipole - Electric-Octupole not included
 Electric-Dipole - Magnetic-Quadrupole not included
 
 
 
      ****************************************************************************************************
      *                                                                                                  *
      *                                         Spin-orbit section                                       *
      *                                                                                                  *
      ****************************************************************************************************
 
 
 Complex SO-Hamiltonian matrix elements over
 spin components of spin-free eigenstates (SFS):
 (In cm-1. Print threshold:    200.000 cm-1)
 ----------------------------------------------------------------------
 
  I1  S1  MS1    I2  S2  MS2    Real part    Imag part      Absolute
     3  0.5 -0.5    1  0.5 -0.5         0.000      1964.154      1964.154
     3  0.5 -0.5    2  0.5  0.5       417.005       127.742       436.132
     4  0.5  0.5    1  0.5 -0.5      -417.005       127.742       436.132
     4  0.5  0.5    2  0.5  0.5         0.000     -1964.154      1964.154
     5  0.5 -0.5    1  0.5 -0.5         0.000      -299.975       299.975
     5  0.5 -0.5    2  0.5  0.5       249.394      1077.999      1106.472
     5  0.5 -0.5    3  0.5 -0.5         0.000      -405.186       405.186
     5  0.5 -0.5    4  0.5  0.5     -1229.587       321.716      1270.978
     6  0.5  0.5    1  0.5 -0.5      -249.394      1077.999      1106.472
     6  0.5  0.5    2  0.5  0.5         0.000       299.975       299.975
     6  0.5  0.5    3  0.5 -0.5      1229.587       321.716      1270.978
     6  0.5  0.5    4  0.5  0.5         0.000       405.186       405.186
     7  0.5 -0.5    2  0.5  0.5      1288.950      -460.693      1368.806
     7  0.5 -0.5    4  0.5  0.5       192.528      1019.314      1037.337
     7  0.5 -0.5    5  0.5 -0.5         0.000      2948.642      2948.642
     7  0.5 -0.5    6  0.5  0.5      -206.282       290.196       356.042
     8  0.5  0.5    1  0.5 -0.5     -1288.950      -460.693      1368.806
     8  0.5  0.5    3  0.5 -0.5      -192.528      1019.314      1037.337
     8  0.5  0.5    5  0.5 -0.5       206.282       290.196       356.042
     8  0.5  0.5    6  0.5  0.5         0.000     -2948.642      2948.642
 ----------------------------------------------------------------------
 
       Total energies including SO-coupling:
::    SO-RASSI State    1     Total energy: -28957.21624633
::    SO-RASSI State    2     Total energy: -28957.21624633
::    SO-RASSI State    3     Total energy: -28957.21027126
::    SO-RASSI State    4     Total energy: -28957.21027126
::    SO-RASSI State    5     Total energy: -28957.18712524
::    SO-RASSI State    6     Total energy: -28957.18712524
::    SO-RASSI State    7     Total energy: -28957.18281932
::    SO-RASSI State    8     Total energy: -28957.18281932
 
 
   Eigenvalues of complex Hamiltonian:
   -----------------------------------
 
  (Shifted by EVAC (a.u.) =    -28957.203406498)
 
          Relative EVac(au)    Rel lowest level(eV)    D:o, cm**(-1)
 
     1       -0.0128398365          0.0000000000              0.0000
     2       -0.0128398365          0.0000000000              0.0000
     3       -0.0068647622          0.1625900523           1311.3772
     4       -0.0068647622          0.1625900523           1311.3772
     5        0.0162812565          0.7924253022           6391.3411
     6        0.0162812565          0.7924253022           6391.3411
     7        0.0205871753          0.9095953209           7336.3811
     8        0.0205871753          0.9095953209           7336.3811
 
 
 Weights of the five most important spin-orbit-free states for each spin-orbit s
 tate.
 
 SO State  Total energy (au)           Spin-free states, spin, and weights
 -------------------------------------------------------------------------------
 ------------------------
    1        -0.012840       3 0.5  0.4201    4 0.5  0.3167    1 0.5  0.2122    2 0.5  0.0511
    2        -0.012840       3 0.5  0.4201    4 0.5  0.3167    1 0.5  0.2122    2 0.5  0.0511
    3        -0.006865       2 0.5  0.4665    1 0.5  0.4401    3 0.5  0.0549    4 0.5  0.0384
    4        -0.006865       2 0.5  0.4665    1 0.5  0.4401    3 0.5  0.0549    4 0.5  0.0384
    5         0.016281       2 0.5  0.4699    1 0.5  0.3282    3 0.5  0.1821    4 0.5  0.0198
    6         0.016281       2 0.5  0.4699    1 0.5  0.3282    3 0.5  0.1821    4 0.5  0.0198
    7         0.020587       4 0.5  0.6251    3 0.5  0.3430    1 0.5  0.0195    2 0.5  0.0124
    8         0.020587       4 0.5  0.6251    3 0.5  0.3430    1 0.5  0.0195    2 0.5  0.0124
 -------------------------------------------------------------------------------
 ------------------------
 
 
      ****************************************************************************************************
      *                                                                                                  *
      *                                    Special properties section                                    *
      *                                                                                                  *
      ****************************************************************************************************
 
 
++ Dipole transition strengths (SO states):
   ----------------------------------------
    for osc. strength at least   1.000000000000000E-005
 
         To  From     Osc. strength   Einstein coefficients Ax, Ay, Az (sec-1)  
      Total A (sec-1)  
         -----------------------------------------------------------------------
 --------------------
         1    6       3.49606378E-05  9.50853269E+02  4.59754632E-01  1.27268802E+00  9.52585711E+02
         1    7       2.77669040E-05  6.39482494E+02  3.54418735E+02  2.95365667E+00  9.96854885E+02
         2    5       3.49606378E-05  9.50853269E+02  4.59754632E-01  1.27268802E+00  9.52585711E+02
         2    8       2.77669040E-05  6.39482494E+02  3.54418735E+02  2.95365667E+00  9.96854885E+02
         -----------------------------------------------------------------------
 --------------------
--
 
++ Velocity transition strengths (SO states):
   ------------------------------------------
    for osc. strength at least   1.000000000000000E-005
 
         To  From     Osc. strength   Einstein coefficients Ax, Ay, Az (sec-1)  
      Total A (sec-1)  
         -----------------------------------------------------------------------
 --------------------
         1    3       4.48679057E-04  1.75264632E+01  4.93031011E+01  4.47843912E+02  5.14673476E+02
         1    4       6.41674032E-04  1.73293587E+02  1.78868545E+02  3.83893183E+02  7.36055315E+02
         1    6       6.48024062E-04  1.42141670E+01  1.76243003E+04  1.84420378E+01  1.76569565E+04
         1    7       7.69159374E-05  7.70831204E+01  2.67925046E+03  5.01236591E+00  2.76134595E+03
         1    8       5.67841327E-05  7.48906908E+01  2.66291893E+02  1.69741488E+03  2.03859746E+03
         2    3       6.41674032E-04  1.73293587E+02  1.78868545E+02  3.83893183E+02  7.36055315E+02
         2    4       4.48679057E-04  1.75264632E+01  4.93031011E+01  4.47843912E+02  5.14673476E+02
         2    5       6.48024062E-04  1.42141670E+01  1.76243003E+04  1.84420378E+01  1.76569565E+04
         2    7       5.67841327E-05  7.48906908E+01  2.66291893E+02  1.69741488E+03  2.03859746E+03
         2    8       7.69159374E-05  7.70831204E+01  2.67925046E+03  5.01236591E+00  2.76134595E+03
         3    5       3.77840315E-05  7.76741404E+01  2.41197287E+02  3.31513201E+02  6.50384629E+02
         3    6       4.07189538E-05  1.67993902E+01  4.61243292E+01  6.37980355E+02  7.00904075E+02
         3    8       2.56353647E-05  1.72048308E+01  5.91511231E+02  1.20027068E+01  6.20718768E+02
         4    5       4.07189538E-05  1.67993902E+01  4.61243292E+01  6.37980355E+02  7.00904075E+02
         4    6       3.77840315E-05  7.76741404E+01  2.41197287E+02  3.31513201E+02  6.50384629E+02
         4    7       2.56353647E-05  1.72048308E+01  5.91511231E+02  1.20027068E+01  6.20718768E+02
         5    7       1.31954152E-03  3.54477342E+01  1.47483588E+02  6.03143895E+02  7.86075217E+02
         5    8       5.22481531E-04  9.48767321E+01  2.01992121E+02  1.43830309E+01  3.11251884E+02
         6    7       5.22481531E-04  9.48767321E+01  2.01992121E+02  1.43830309E+01  3.11251884E+02
         6    8       1.31954152E-03  3.54477342E+01  1.47483588E+02  6.03143895E+02  7.86075217E+02
         -----------------------------------------------------------------------
 --------------------
--
 
 
 --------------------------------------------------
 
 A comparison between the dipole oscillator strengths in 
 length and velocity gauge will be performed
 
 All dipole oscillator differences above the tolerance of 
  0.100000000000000       will be printed 
 
 Due to basis set deficiency these oscillator may be problematic 
 
 The tolerance is defined as ABS(1-O_l/O_v) 
 O_l : dipole oscillator strength in length gauge
 O_p : dipole oscillator strength in velocity gauge
 
 --------------------------------------------------
 
  Problematic transitions have been found
      From   To      Difference (%)  Osc. st. (len.) Osc. st. (vel.)
      --------------------------------------------------------------
 
         1    3      --------------- below threshold  4.48679057E-04
         1    4      --------------- below threshold  6.41674032E-04
         1    6       9.46050402E+01  3.49606378E-05  6.48024062E-04
         1    7       6.38996742E+01  2.77669040E-05  7.69159374E-05
         1    8      --------------- below threshold  5.67841327E-05
         2    3      --------------- below threshold  6.41674032E-04
         2    4      --------------- below threshold  4.48679057E-04
         2    5       9.46050402E+01  3.49606378E-05  6.48024062E-04
         2    7      --------------- below threshold  5.67841327E-05
         2    8       6.38996742E+01  2.77669040E-05  7.69159374E-05
         3    5      --------------- below threshold  3.77840315E-05
         3    6      --------------- below threshold  4.07189538E-05
         3    8      --------------- below threshold  2.56353647E-05
         4    5      --------------- below threshold  4.07189538E-05
         4    6      --------------- below threshold  3.77840315E-05
         4    7      --------------- below threshold  2.56353647E-05
         5    7      --------------- below threshold  1.31954152E-03
         5    8      --------------- below threshold  5.22481531E-04
         6    7      --------------- below threshold  5.22481531E-04
         6    8      --------------- below threshold  1.31954152E-03
      --------------------------------------------------------------
 
 Number of problematic transitions =                     20
 
 Electric-Dipole - Electric-Octupole not included
 Electric-Dipole - Magnetic-Quadrupole not included
 ###############################################################################
 ###############################################################################
 ###                                                                         ###
 ###                                                                         ###
 ###    RunFile label nBas                                                   ###
 ###    was used      399 times                                              ###
 ###                                                                         ###
 ###                                                                         ###
 ###############################################################################
 ###############################################################################
--- Stop Module: rassi at Wed Dec 18 00:06:38 2019 /rc=_RC_ALL_IS_WELL_ ---
*** files: UO2_C6H5SO2_OH-m1-doublet.rassi-SO-casscf-xmscaspt2.VTZP.rassi.h5 xmldump
    saved to directory /home/vallet/John-sulfinate/U-complexes/UO2_C6H5SO2_OH-m1/optg-freq-pbe0/SO-XMS
--- Module rassi spent 1 second ---

    Timing: Wall=14014.90 User=72595.81 System=2716.19
