   This run of MOLCAS is using the pymolcas driver

                             OPE
                             OPE          NMOL  CASOP  ENMOLC A   SO
                 OPE        NMOLC        AS  OP EN  MO LC     AS  OP
                OPENM       OL CA        SO  PE NM  OL CA     SOP EN
                OP EN      MO   LC       AS  OP ENMOL  CASO   PENMOL
                OP  EN     MO   LC       AS  OP EN     MO     LC ASO
               OP   E  NMOL  C  AS       OP  EN MO     LC     AS  OP
               OP  E   NMO   LC AS        OPEN  MO     LCASOP EN   M
               O  PEN   MO  LCA  SO
            OPE   NMO   L   CAS    OP
        OPENMOL  CASOP     ENMOL   CASOPE
     OPENMOLCA   SOPENMOLCASOPEN   MOLCASOPE
    OPENMOLCAS   OP           EN   MOL    CAS
    OPENMOLCAS       OP  ENM        O     LCA
    OPENMOLCAS    OPEN  MOLCASO     P  E  NMO
    OPENMOLCAS     OP               E  N  MOL
    OPENMOLCA   SO           PENM   O  L  CAS    OPEN    MO    LCAS
    OPENMOLCA   SOP           ENM   O  L  CAS   OP  EN  MOLC  AS   O
    OPENMOLCA   SOPE           NM      O  LCA   S      OP  EN MO
    OPENMOLC                AS         O  PEN   M      OL  CA  SOPE
    OPENMO        LCASOPE  NMOL        C  ASO   P      ENMOLC     AS
    OPE     NMO      LCA  SO     P     E   NM   OL  CA SO  PE N   MO
          OPENMOLCA            SOPE   NMO        LCAS  O    P  ENMO
     OPENMOLCASOPENMOLCASOPENMOLCASOPENMOLCA
        OPENMOLCASOPENMOLCASOPENMOLCASOPE
            OPENMOLCASOPENMOLCASOPENM
               OPENMOLCASOPENMOLCA        version: 18.09
                   OPENMOLCASO
                       OPE                tag: 259-g52797e1-dirty

 OpenMolcas is free software; you can redistribute it and/or modify it
 under the terms of the GNU Lesser General Public License version 2.1.
 OpenMolcas is distributed in the hope that it will be useful, but it
 is provided "as is" and without any express or implied warranties.
 For more details see the full text of the license in the file
 LICENSE or in <http://www.gnu.org/licenses/>.

                 Copyright (C) The OpenMolcas Authors
           For the author list and the recommended citation,
                   consult the file CONTRIBUTORS.md

           *************************************************
           * pymolcas version py2.05                       *
           *   build e639e37c9a57315123c35f99e509df06      *
           *   (after the EMIL interpreter by V. Veryazov) *
           *************************************************

configuration info
------------------
C Compiler ID: Intel
C flags: -I/share/apps/fftw/3.3.8/include -std=gnu99 -mcmodel=large -qopenmp
Fortran Compiler ID: Intel
Fortran flags: -fpp -mcmodel=large -i8 -r8 -heap-arrays -qopenmp
Definitions: _MOLCAS_;_I8_;_LINUX_;_MKL_;_FDE_
Parallel: OFF (GA=OFF)


   ------------------------------------------------------------------------------------------------------
  |
  |           Project: UO2_C6H5SO2_OH-m1-doublet.casscf.MB
  |    Submitted from: /home/vallet/John-sulfinate/U-complexes/UO2_C6H5SO2_OH-m1/optg-freq-pbe0/SO-XMS
  |      Scratch area: /state/partition2/vallet/656538.phlam-s-sakura/UO2_C6H5SO2_OH-m1-doublet.casscf.MB
  |   Save outputs to: /home/vallet/John-sulfinate/U-complexes/UO2_C6H5SO2_OH-m1/optg-freq-pbe0/SO-XMS
  |            Molcas: /home/pcmt/OpenMolcas/OpenMolcas-20190114
  |
  | Scratch area is empty
  |
  |    MOLCAS_DRIVER = /home/pcmt/OpenMolcas/OpenMolcas-20190114/sbin/pymolcas
  |   MOLCAS_LICENSE = /home/pcmt/molcas/license
  |    MOLCAS_MOLDEN = ON
  |    MOLCAS_NPROCS = 1
  |    MOLCAS_SOURCE = /home/pcmt/OpenMolcas/OpenMolcas-20190114
  | MOLCAS_STRUCTURE = 0
  |
   ------------------------------------------------------------------------------------------------------

++ ---------   Input file   ---------

&GATEWAY
   COORD=$HomeDir/UO2_C6H5SO2_OH-m1.pbe0.optg-zaxis.xyz
   BASIS=ANO-RCC-MB
   Group=Nosym
   ANGM=0.0 0.0 0.0
   RICD

>>> COPY $Project.RunFile $HomeDir

&SEWARD

&RASSCF
   Spin=2
   Symmetry=1
   Nactel=1 0 0
   Inactive=95
   Ras2=4
   CIRoots=4 4 1
   Lumorb

>>> COPY $Project.RasOrb $HomeDir/$Project.RasOrb_doublets

>>> COPY $Project.rasscf.molden $HomeDir/$Project.rasscf_doublets.molden

-- ----------------------------------

--- Start Module: gateway at Tue Dec 17 20:09:51 2019 ---
 
()()()()()()()()()()()()()()()()()()()()()()()()()()()()()()()()()()()()()()()()()()()()()()()()()()

                                              &GATEWAY

                                   only a single process is used
                       available to each process: 16 GB of memory, 8 threads
()()()()()()()()()()()()()()()()()()()()()()()()()()()()()()()()()()()()()()()()()()()()()()()()()()
 
 
++    Symmetry information:
      ---------------------
 
                    Character Table for C1 
 
                             E  
                    a        1  x, y, xy, Rz, z, xz, Ry, yz, Rx, I
--
 
 
++    Basis set information:
      ----------------------
 
 
      Basis set label: C.ANO-RCC...2S1P.
 
      Electronic valence basis set:
      ------------------
      Associated Effective Charge   6.000000 au
      Associated Actual Charge      6.000000 au
      Nuclear Model: Point charge
 
      Shell  nPrim  nBasis  Cartesian Spherical Contaminant
         s      14       2        X                  
         p       9       1        X                  
 
 
      Basis set label: S.ANO-RCC...3S2P.
 
      Electronic valence basis set:
      ------------------
      Associated Effective Charge  16.000000 au
      Associated Actual Charge     16.000000 au
      Nuclear Model: Point charge
 
      Shell  nPrim  nBasis  Cartesian Spherical Contaminant
         s      17       3        X                  
         p      12       2        X                  
 
 
      Basis set label: O.ANO-RCC...2S1P.
 
      Electronic valence basis set:
      ------------------
      Associated Effective Charge   8.000000 au
      Associated Actual Charge      8.000000 au
      Nuclear Model: Point charge
 
      Shell  nPrim  nBasis  Cartesian Spherical Contaminant
         s      14       2        X                  
         p       9       1        X                  
 
 
      Basis set label: U.ANO-RCC...7S6P4D2F.
 
      Electronic valence basis set:
      ------------------
      Associated Effective Charge  92.000000 au
      Associated Actual Charge     92.000000 au
      Nuclear Model: Point charge
 
      Shell  nPrim  nBasis  Cartesian Spherical Contaminant
         s      26       7        X                  
         p      23       6        X                  
         d      17       4                 X         
         f      13       2                 X         
 
 
      Basis set label: O.ANO-RCC...2S1P.
 
      Electronic valence basis set:
      ------------------
      Associated Effective Charge   8.000000 au
      Associated Actual Charge      8.000000 au
      Nuclear Model: Point charge
 
      Shell  nPrim  nBasis  Cartesian Spherical Contaminant
         s      14       2        X                  
         p       9       1        X                  
 
 
      Basis set label: H.ANO-RCC...1S.
 
      Electronic valence basis set:
      ------------------
      Associated Effective Charge   1.000000 au
      Associated Actual Charge      1.000000 au
      Nuclear Model: Point charge
 
      Shell  nPrim  nBasis  Cartesian Spherical Contaminant
         s       8       1        X                  
 
 
      Basis set label: O.ANO-RCC...2S1P.
 
      Electronic valence basis set:
      ------------------
      Associated Effective Charge   8.000000 au
      Associated Actual Charge      8.000000 au
      Nuclear Model: Point charge
 
      Shell  nPrim  nBasis  Cartesian Spherical Contaminant
         s      14       2        X                  
         p       9       1        X                  
 
 
      Basis set label: H.ANO-RCC...1S.
 
      Electronic valence basis set:
      ------------------
      Associated Effective Charge   1.000000 au
      Associated Actual Charge      1.000000 au
      Nuclear Model: Point charge
 
      Shell  nPrim  nBasis  Cartesian Spherical Contaminant
         s       8       1        X                  
--
 
 
++    Molecular structure info:
      -------------------------
 
                    ************************************************ 
                    **** Cartesian Coordinates / Bohr, Angstrom **** 
                    ************************************************ 
 
     Center  Label                x              y              z                     x              y              z
        1      C1              -0.338752       6.020403       5.023667             -0.179260       3.185860       2.658410
        2      C2              -0.226616       7.461508       2.830526             -0.119920       3.948460       1.497850
        3      C3              -0.359823      10.072278       2.923104             -0.190410       5.330020       1.546840
        4      C4              -0.610004      11.286030       5.239625             -0.322800       5.972310       2.772690
        5      C5              -0.724615       9.867734       7.439266             -0.383450       5.221780       3.936690
        6      C6              -0.589708       7.243377       7.325448             -0.312060       3.833030       3.876460
        7      S7               0.111815       5.970250      -0.246704              0.059170       3.159320      -0.130550
        8      O8              -2.157009       4.162613      -0.302205             -1.141440       2.202760      -0.159920
        9      U9               0.000000       0.000000       0.000000              0.000000       0.000000       0.000000
       10      O10              0.000000       0.000000       3.434124              0.000000       0.000000       1.817260
       11      O11              2.448329       4.322862       0.094486              1.295600       2.287560       0.050000
       12      O12             -2.768562      -3.090571      -0.164349             -1.465060      -1.635460      -0.086970
       13      H13             -3.113494      -3.622926      -1.860776             -1.647590      -1.917170      -0.984680
       14      O14              0.566993      -0.281380      -3.364884              0.300040      -0.148900      -1.780620
       15      H15             -0.268247      11.150367       1.180115             -0.141950       5.900520       0.624490
       16      H16             -0.715620      13.330846       5.324209             -0.378690       7.054380       2.817450
       17      H17             -0.921090      10.804566       9.251400             -0.487420       5.717530       4.895630
       18      H18             -0.683419       6.140949       9.050257             -0.361650       3.249650       4.789190
       19      H19             -0.231643       3.972620       4.900910             -0.122580       2.102220       2.593450
 
                    ************************************************* 
                    **** InterNuclear Distances / Bohr, Angstrom **** 
                    ************************************************* 
 
     Atom centers         Bohr        Angstrom
   13 H13      12 O12     1.811143        0.958416
   18 H18       6 C6      2.049170        1.084374
   16 H16       4 C4      2.049288        1.084437
   17 H17       5 C5      2.049411        1.084502
   15 H15       3 C3      2.051505        1.085610
   19 H19       1 C1      2.054253        1.087064
    3 C3        2 C2      2.615805        1.384224
    6 C6        1 C1      2.618557        1.385681
    5 C5        4 C4      2.619756        1.386315
    2 C2        1 C1      2.626637        1.389957
    4 C4        3 C3      2.627176        1.390242
    6 C6        5 C5      2.630286        1.391887
   11 O11       7 S7      2.879166        1.523589
    8 O8        7 S7      2.901412        1.535361
   14 O14       9 U9      3.423902        1.811851
   10 O10       9 U9      3.434124        1.817260
    7 S7        2 C2      3.436238        1.818379
   15 H15       2 C2      4.041444        2.138640
   18 H18       1 C1      4.043113        2.139523
   17 H17       4 C4      4.052521        2.144502
   19 H19       2 C2      4.056951        2.146846
   16 H16       5 C5      4.057917        2.147357
   18 H18       5 C5      4.060286        2.148611
   17 H17       6 C6      4.062164        2.149604
   16 H16       3 C3      4.063270        2.150190
   15 H15       4 C4      4.076128        2.156994
   19 H19       6 C6      4.087107        2.162804
   12 O12       9 U9      4.152539        2.197429
   19 H19      10 O10     4.241088        2.244287
    6 C6        2 C2      4.514835        2.389148
    5 C5        3 C3      4.535486        2.400076
    4 C4        2 C2      4.536266        2.400489
    6 C6        4 C4      4.549079        2.407269
    5 C5        1 C1      4.559163        2.412605
    3 C3        1 C1      4.564044        2.415188
   11 O11       8 O8      4.625168        2.447534
   18 H18      17 H17     4.674000        2.473374
   17 H17      16 H16     4.674092        2.473423
    9 U9        8 O8      4.698017        2.486084
   19 H19      18 H18     4.703492        2.488981
   16 H16      15 H15     4.704056        2.489279
    8 O8        2 C2      4.941976        2.615181
   11 O11       2 C2      4.948974        2.618884
   11 O11       9 U9      4.968941        2.629451
   13 H13       9 U9      5.126590        2.712875
   14 O14      13 H13     5.193675        2.748374
    7 S7        3 C3      5.205455        2.754608
    5 C5        2 C2      5.222874        2.763826
    6 C6        3 C3      5.237954        2.771806
    4 C4        1 C1      5.277030        2.792484
    7 S7        1 C1      5.289833        2.799259
   15 H15       7 S7      5.386453        2.850388
   14 O14      12 O12     5.409335        2.862497
   12 O12      10 O10     5.492320        2.906411
   19 H19      11 O11     5.514221        2.918000
   19 H19       7 S7      5.532307        2.927571
   19 H19       8 O8      5.551175        2.937555
--
 
 
            Nuclear Potential Energy           2297.91459659 au
 
--- Stop Module: gateway at Tue Dec 17 20:11:12 2019 /rc=_RC_ALL_IS_WELL_ ---
*** files: UO2_C6H5SO2_OH-m1-doublet.casscf.MB.RICDLib xmldump
    saved to directory /home/vallet/John-sulfinate/U-complexes/UO2_C6H5SO2_OH-m1/optg-freq-pbe0/SO-XMS
--- Module gateway spent 1 minute 21 seconds ---

>>> COPY UO2_C6H5SO2_OH-m1-doublet.casscf.MB.RunFile /home/vallet/John-sulfinate/U-complexes/UO2_C6H5SO2_OH-m1/optg-freq-pbe0/SO-XMS

--- Start Module: seward at Tue Dec 17 20:11:13 2019 ---
 
()()()()()()()()()()()()()()()()()()()()()()()()()()()()()()()()()()()()()()()()()()()()()()()()()()

                                              &SEWARD

                                   only a single process is used
                       available to each process: 16 GB of memory, 8 threads
()()()()()()()()()()()()()()()()()()()()()()()()()()()()()()()()()()()()()()()()()()()()()()()()()()
 
               SEWARD will generate:
                  Multipole Moment integrals up to order  2
                  Kinetic Energy integrals
                  Nuclear Attraction integrals (point charge)
                  One-Electron Hamiltonian integrals
                  Velocity integrals
                  Relativistic Douglas-Kroll-Hess integrals:
                    - Parametrization         : EXP
                    - DKH order of Hamiltonian: 2
                    - DKH order of Properties : 0
                         - multipole moment operators
                         - electric potential operators
                         - contact operators
                  Orbital angular momentum around ( 0.0000  0.0000  0.0000 )
                  Atomic mean-field integrals
                  RI decomposed two-electron repulsion integrals stored Cholesky style
                   - acCD auxiliary basis
                   - CD Threshold:   0.10E-03
 
                   Integrals are discarded if absolute value <: 0.10E-13
                   Integral cutoff threshold is set to       <: 0.10E-15
 
            Nuclear Potential Energy           2297.91459659 au
 
 
      Basis set specifications :
      Symmetry species         a  
      Basis functions          129
 
 
  Input file to MOLDEN was generated!
 
--- Stop Module: seward at Tue Dec 17 20:11:37 2019 /rc=_RC_ALL_IS_WELL_ ---
*** files: UO2_C6H5SO2_OH-m1-doublet.casscf.MB.GssOrb UO2_C6H5SO2_OH-m1-doublet.casscf.MB.guessorb.h5 UO2_C6H5SO2_OH-m1-doublet.casscf.MB.guessorb.molden xmldump
    saved to directory /home/vallet/John-sulfinate/U-complexes/UO2_C6H5SO2_OH-m1/optg-freq-pbe0/SO-XMS
--- Module seward spent 24 seconds ---

*** symbolic link created: INPORB -> UO2_C6H5SO2_OH-m1-doublet.casscf.MB.GssOrb
--- Start Module: rasscf at Tue Dec 17 20:11:37 2019 ---
 
()()()()()()()()()()()()()()()()()()()()()()()()()()()()()()()()()()()()()()()()()()()()()()()()()()

                                              &RASSCF

                                   only a single process is used
                       available to each process: 16 GB of memory, 8 threads
()()()()()()()()()()()()()()()()()()()()()()()()()()()()()()()()()()()()()()()()()()()()()()()()()()
 
 
      Header of the ONEINT file:
      --------------------------
      
      Integrals generated by seward 4.2.0  , Tue Dec 17 20:11:13 2019
 
 
      OrdInt status: non-squared
 
 
      Cartesian coordinates in Angstrom:
      -----------------------------------------------------
      No.  Label        X            Y            Z        
      -----------------------------------------------------
       1   C1        -0.17926000   3.18586000   2.65841000
       2   C2        -0.11992000   3.94846000   1.49785000
       3   C3        -0.19041000   5.33002000   1.54684000
       4   C4        -0.32280000   5.97231000   2.77269000
       5   C5        -0.38345000   5.22178000   3.93669000
       6   C6        -0.31206000   3.83303000   3.87646000
       7   S7         0.05917000   3.15932000  -0.13055000
       8   O8        -1.14144000   2.20276000  -0.15992000
       9   U9         0.00000000   0.00000000   0.00000000
      10   O10        0.00000000   0.00000000   1.81726000
      11   O11        1.29560000   2.28756000   0.05000000
      12   O12       -1.46506000  -1.63546000  -0.08697000
      13   H13       -1.64759000  -1.91717000  -0.98468000
      14   O14        0.30004000  -0.14890000  -1.78062000
      15   H15       -0.14195000   5.90052000   0.62449000
      16   H16       -0.37869000   7.05438000   2.81745000
      17   H17       -0.48742000   5.71753000   4.89563000
      18   H18       -0.36165000   3.24965000   4.78919000
      19   H19       -0.12258000   2.10222000   2.59345000
      -----------------------------------------------------
      Nuclear repulsion energy = 2297.91459659
 
++    Wave function specifications:
      -----------------------------
 
      Number of closed shell electrons         190
      Number of electrons in active shells       1
      Max number of holes in RAS1 space          0
      Max nr of electrons in RAS3 space          0
      Number of inactive orbitals               95
      Number of active orbitals                  4
      Number of secondary orbitals              30
      Spin quantum number                      0.5
      State symmetry                             1
--
 
++    Orbital specifications:
      -----------------------
 
      Symmetry species                           1
                                                 a
      Frozen orbitals                            0
      Inactive orbitals                         95
      Active orbitals                            4
      RAS1 orbitals                              0
      RAS2 orbitals                              4
      RAS3 orbitals                              0
      Secondary orbitals                        30
      Deleted orbitals                           0
      Number of basis functions                129
--
 
++    CI expansion specifications:
      ----------------------------
 
      Number of CSFs                             4
      Number of determinants                     4
      Number of root(s) required                 4
      Root chosen for geometry opt.              4
      CI roots used                              1     2     3     4
      weights                                0.250 0.250 0.250 0.250
      highest root included in the CI            4
      max. size of the explicit Hamiltonian      4
--
 
++    Optimization specifications:
      ----------------------------
 
      RASSCF algorithm: LK RI/DF
      Maximum number of macro iterations       200
      Maximum number of SX iterations          100
      Threshold for RASSCF energy            0.100E-07
      Threshold for max MO rotation          0.100E+00
      Threshold for max BLB element          0.100E-03
      Level shift parameter                  0.500E+00
      Make Quasi-Newton update
--
 
      The MO-coefficients are taken from the file:
      INPORB                                                                                                                          
      Title:Guess orbitals                                                                 
 
      Total molecular charge   -1.00
 
      ************************************************************************************************************************
      *                                                                                                                      *
      *                                            Wave function control section                                             *
      *                                                                                                                      *
      ************************************************************************************************************************
 
 
                                         RASSCF iterations: Energy and convergence statistics
                                         ----------------------------------------------------
 
      Iter CI   SX   CI       RASSCF       Energy    max ROT     max BLB   max BLB  Level Ln srch  Step   QN   Walltime
          iter iter root      energy       change     param      element    value   shift minimum  type update hh:mm:ss
 Nr of preliminary CI iterations:   1
      Total energies have been shifted. Add               -28000.00 au
        1   1   10    0  -952.18967967    0.00E+00   0.10E+00   92 102 1  0.31E+00*  0.49   0.00    SX    NO    0:00:04
        2   1   10    0  -952.97900329   -0.79E+00*  0.42E-01   76 108 1 -0.11E+00*  0.66   0.00    SX    NO    0:00:01
        3   1   10    0  -953.13281462   -0.15E+00*  0.27E-01   95  98 1  0.60E-01*  0.63   0.00    SX    NO    0:00:01
        4   1    9    0  -953.17598270   -0.43E-01*  0.16E-01   95  98 1  0.34E-01*  0.60   0.00    SX    NO    0:00:01
        5   1    9    0  -953.19043659   -0.14E-01*  0.20E-01   95  98 1  0.19E-01*  0.59   2.45    LS   YES    0:00:01
        6   1    9    0  -953.19809123   -0.77E-02*  0.48E-02   87 105 1  0.81E-02*  0.58   1.17    QN   YES    0:00:01
        7   1    9    0  -953.19952721   -0.14E-02*  0.40E-02   92 102 1  0.69E-02*  0.58   1.88    LS   YES    0:00:01
        8   1    9    0  -953.19992622   -0.40E-03*  0.39E-02   92 102 1  0.94E-02*  0.57   1.04    QN   YES    0:00:01
        9   1    8    0  -953.20029399   -0.37E-03*  0.23E-02   92 102 1  0.45E-02*  0.58   1.60    LS   YES    0:00:01
       10   1    8    0  -953.20035463   -0.61E-04* -0.17E-02   59 102 1  0.26E-02*  0.58   1.02    QN   YES    0:00:01
       11   1    7    0  -953.20042050   -0.66E-04* -0.29E-02   92 102 1  0.28E-02*  0.58   1.67    QN   YES    0:00:01
       12   1    7    0  -953.20045854   -0.38E-04* -0.22E-02   92 102 1  0.19E-02*  0.58   1.36    QN   YES    0:00:01
       13   1    7    0  -953.20046933   -0.11E-04*  0.21E-02   92 102 1  0.93E-03*  0.58   1.66    QN   YES    0:00:01
       14   1    7    0  -953.20047427   -0.49E-05*  0.13E-02   59 102 1 -0.25E-03*  0.58   1.51    QN   YES    0:00:01
       15   1    6    0  -953.20047575   -0.15E-05*  0.20E-02   61 108 1  0.16E-03*  0.58   2.50    LS   YES    0:00:01
       16   1    7    0  -953.20047531    0.44E-06*  0.88E-03   92 102 1 -0.49E-03*  0.58   0.37    LS   YES    0:00:01
       17   1    6    0  -953.20047593   -0.62E-06*  0.24E-03   92 102 1 -0.31E-03*  0.58   1.33    QN   YES    0:00:01
       18   1    6    0  -953.20047645   -0.52E-06*  0.35E-03   92 102 1 -0.15E-03*  0.58   2.50    LS   YES    0:00:01
       19   1    6    0  -953.20047658   -0.13E-06*  0.84E-03   61 108 1 -0.12E-03*  0.58   0.67    QN   YES    0:00:01
       20   1    6    0  -953.20047687   -0.29E-06*  0.10E-02   61 108 1 -0.67E-04   0.58   2.19    LS   YES    0:00:01
       21   1    6    0  -953.20047699   -0.12E-06* -0.58E-03   92 102 1 -0.16E-03*  0.58   0.93    QN   YES    0:00:01
       22   1    6    0  -953.20047715   -0.16E-06* -0.87E-03   92 102 1 -0.11E-03*  0.58   2.50    LS   YES    0:00:01
       23   1    6    0  -953.20047729   -0.14E-06* -0.62E-03   88 100 1 -0.48E-04   0.58   1.23    QN   YES    0:00:01
       24   1    6    0  -953.20047739   -0.99E-07* -0.49E-03   70 127 1 -0.42E-04   0.58   1.20    QN   YES    0:00:01
       25   1    5    0  -953.20047741   -0.24E-07* -0.73E-03   87 100 1  0.15E-04   0.58   2.50    LS   YES    0:00:01
       26   1    6    0  -953.20047738    0.27E-07* -0.36E-03   70 127 1  0.39E-04   0.58   0.29    LS   YES    0:00:02
       27   1    5    0  -953.20047740   -0.21E-07* -0.25E-03   81 101 1  0.23E-04   0.58   2.50    QN   YES    0:00:01
       28   1    5    0  -953.20047742   -0.19E-07* -0.75E-04   81 101 1  0.92E-05   0.58   1.07    QN   YES    0:00:02
       29   1    5    0  -953.20047744   -0.16E-07*  0.14E-03   99 100 1  0.66E-05   0.58   1.03    QN   YES    0:00:02
       30   1    4    0  -953.20047744    0.95E-10  -0.90E-04   61 108 1 -0.52E-05   0.58   0.28    QN   YES    0:00:02
      Convergence after 30 iterations
       31   1    4    0  -953.20047744    0.24E-08  -0.90E-04   61 108 1 -0.43E-05   0.58   0.28    QN   YES    0:00:02
 
      ************************************************************************************************************************
                                                      Wave function printout:
                       occupation of active orbitals, and spin coupling of open shells (u,d: Spin up or down)
      ************************************************************************************************************************
 
      Note: transformation to natural orbitals
      has been made, which may change the order of the CSFs.
 
      printout of CI-coefficients larger than  0.05 for root  1
      energy=  -28953.208709
      conf/sym  1111     Coeff  Weight
             1  u000  -0.74731 0.55847
             2  0u00   0.66447 0.44152
 
      printout of CI-coefficients larger than  0.05 for root  2
      energy=  -28953.203960
      conf/sym  1111     Coeff  Weight
             1  u000   0.66429 0.44128
             2  0u00   0.74712 0.55818
 
      printout of CI-coefficients larger than  0.05 for root  3
      energy=  -28953.197350
      conf/sym  1111     Coeff  Weight
             3  00u0   0.94245 0.88821
             4  000u  -0.33360 0.11129
 
      printout of CI-coefficients larger than  0.05 for root  4
      energy=  -28953.191891
      conf/sym  1111     Coeff  Weight
             3  00u0   0.33356 0.11126
             4  000u   0.94271 0.88870
 
      Natural orbitals and occupation numbers for root  1
      sym 1:   1.000000   0.000000   0.000000  -0.000000
 
      Natural orbitals and occupation numbers for root  2
      sym 1:  -0.000000   1.000000   0.000000   0.000000
 
      Natural orbitals and occupation numbers for root  3
      sym 1:   0.000000  -0.000000   1.000000  -0.000000
 
      Natural orbitals and occupation numbers for root  4
      sym 1:  -0.000000   0.000000   0.000000   1.000000
 
      ************************************************************************************************************************
      *                                                                                                                      *
      *                                                    Final results                                                     *
      *                                                                                                                      *
      ************************************************************************************************************************
 
 
++    Wave function specifications:
      -----------------------------
 
      Number of closed shell electrons         190
      Number of electrons in active shells       1
      Max number of holes in RAS1 space          0
      Max nr of electrons in RAS3 space          0
      Number of inactive orbitals               95
      Number of active orbitals                  4
      Number of secondary orbitals              30
      Spin quantum number                      0.5
      State symmetry                             1
--
 
++    Orbital specifications:
      -----------------------
 
      Symmetry species                           1
                                                 a
      Frozen orbitals                            0
      Inactive orbitals                         95
      Active orbitals                            4
      RAS1 orbitals                              0
      RAS2 orbitals                              4
      RAS3 orbitals                              0
      Secondary orbitals                        30
      Deleted orbitals                           0
      Number of basis functions                129
--
 
++    CI expansion specifications:
      ----------------------------
 
      Number of CSFs                             4
      Number of determinants                     4
      Number of root(s) required                 4
      CI roots used                              1     2     3     4
      weights                                0.250 0.250 0.250 0.250
      highest root included in the CI            4
      Root passed to geometry opt.               4
--
 
++    Final optimization conditions:
      ------------------------------
 
      Average CI energy                          -28953.20047744
      RASSCF energy for state  4                 -28953.19189149
      Super-CI energy                                -0.00000000
      RASSCF energy change                            0.00000000
      Max change in MO coefficients              -0.616E-04
      Max non-diagonal density matrix element    -0.898E-04
      Maximum BLB matrix element                 -0.431E-05
      (orbital pair  61, 108 in symmetry   1)
      Norm of electronic gradient            0.456E-01
--
 
 
      Final state energy(ies):
      ------------------------
 
::    RASSCF root number  1 Total energy: -28953.20870868
::    RASSCF root number  2 Total energy: -28953.20395997
::    RASSCF root number  3 Total energy: -28953.19734962
::    RASSCF root number  4 Total energy: -28953.19189149
 
++    Molecular orbitals:
      -------------------
 
      Pseudonatural active orbitals and approximate occupation numbers
 
 
 
 
      Molecular orbitals for symmetry species 1: a  
 
 
      Orbital                1         2         3         4         5         6         7         8         9        10
      Energy        -4260.2750 -804.2336 -674.9055 -674.9051 -674.9048 -206.2721 -169.6724 -169.6720 -169.6643 -135.0974
      Occ. No.          2.0000    2.0000    2.0000    2.0000    2.0000    2.0000    2.0000    2.0000    2.0000    2.0000
 
    1 C1     1s         0.0000    0.0000   -0.0000    0.0000   -0.0000    0.0000   -0.0000    0.0000   -0.0000    0.0000
    2 C1     2s         0.0000    0.0000   -0.0000    0.0000   -0.0000    0.0000   -0.0000    0.0000   -0.0000    0.0000
    3 C1     2px        0.0000    0.0000   -0.0000   -0.0000   -0.0000    0.0000   -0.0000   -0.0000    0.0000   -0.0000
    4 C1     2py        0.0000    0.0000    0.0000   -0.0000    0.0000    0.0000    0.0000   -0.0000    0.0000   -0.0000
    5 C1     2pz        0.0000    0.0000   -0.0000    0.0000   -0.0000    0.0000   -0.0000    0.0000   -0.0000    0.0000
    6 C2     1s        -0.0000   -0.0000   -0.0000    0.0000   -0.0000   -0.0000   -0.0000    0.0000   -0.0000    0.0000
    7 C2     2s        -0.0000   -0.0000   -0.0000    0.0000   -0.0000   -0.0000   -0.0000    0.0000   -0.0000    0.0000
    8 C2     2px        0.0000    0.0000   -0.0000   -0.0000    0.0000    0.0000   -0.0000   -0.0000    0.0000   -0.0000
    9 C2     2py        0.0000    0.0000   -0.0000    0.0000   -0.0000    0.0000   -0.0000    0.0000   -0.0000    0.0000
   10 C2     2pz        0.0000    0.0000   -0.0000   -0.0000   -0.0000    0.0000   -0.0000   -0.0000   -0.0000    0.0000
   11 C3     1s        -0.0000   -0.0000    0.0000   -0.0000    0.0000   -0.0000    0.0000   -0.0000    0.0000   -0.0000
   12 C3     2s         0.0000   -0.0000    0.0000   -0.0000   -0.0000    0.0000    0.0000   -0.0000   -0.0000   -0.0000
   13 C3     2px       -0.0000   -0.0000   -0.0000   -0.0000    0.0000   -0.0000   -0.0000   -0.0000    0.0000   -0.0000
   14 C3     2py       -0.0000   -0.0000    0.0000   -0.0000   -0.0000   -0.0000    0.0000   -0.0000   -0.0000    0.0000
   15 C3     2pz       -0.0000   -0.0000    0.0000   -0.0000    0.0000   -0.0000    0.0000   -0.0000    0.0000    0.0000
   16 C4     1s         0.0000    0.0000   -0.0000    0.0000   -0.0000    0.0000   -0.0000    0.0000   -0.0000   -0.0000
   17 C4     2s         0.0000    0.0000   -0.0000    0.0000   -0.0000    0.0000   -0.0000    0.0000   -0.0000   -0.0000
   18 C4     2px        0.0000    0.0000   -0.0000   -0.0000    0.0000    0.0000   -0.0000   -0.0000    0.0000    0.0000
   19 C4     2py       -0.0000   -0.0000    0.0000   -0.0000    0.0000   -0.0000    0.0000   -0.0000    0.0000   -0.0000
   20 C4     2pz       -0.0000   -0.0000    0.0000   -0.0000    0.0000   -0.0000    0.0000   -0.0000    0.0000    0.0000
   21 C5     1s         0.0000    0.0000   -0.0000    0.0000   -0.0000    0.0000   -0.0000    0.0000   -0.0000   -0.0000
   22 C5     2s         0.0000    0.0000   -0.0000    0.0000   -0.0000    0.0000   -0.0000    0.0000   -0.0000    0.0000
   23 C5     2px        0.0000    0.0000   -0.0000   -0.0000   -0.0000    0.0000   -0.0000   -0.0000   -0.0000    0.0000
   24 C5     2py       -0.0000   -0.0000    0.0000   -0.0000    0.0000   -0.0000    0.0000   -0.0000    0.0000   -0.0000
   25 C5     2pz       -0.0000   -0.0000    0.0000   -0.0000    0.0000   -0.0000    0.0000   -0.0000    0.0000   -0.0000
   26 C6     1s         0.0000    0.0000    0.0000   -0.0000    0.0000    0.0000    0.0000   -0.0000    0.0000   -0.0000
   27 C6     2s         0.0000    0.0000    0.0000   -0.0000    0.0000    0.0000    0.0000   -0.0000    0.0000   -0.0000
   28 C6     2px        0.0000   -0.0000   -0.0000   -0.0000    0.0000    0.0000   -0.0000   -0.0000    0.0000   -0.0000
   29 C6     2py       -0.0000    0.0000    0.0000   -0.0000    0.0000   -0.0000    0.0000   -0.0000    0.0000    0.0000
   30 C6     2pz       -0.0000   -0.0000   -0.0000   -0.0000    0.0000   -0.0000   -0.0000   -0.0000    0.0000    0.0000
   31 S7     1s        -0.0000   -0.0000    0.0000   -0.0000    0.0000   -0.0000    0.0000   -0.0000   -0.0000   -0.0000
   32 S7     2s        -0.0000   -0.0000    0.0000   -0.0000    0.0000   -0.0000    0.0000   -0.0000   -0.0000   -0.0000
   33 S7     3s        -0.0000   -0.0000    0.0000   -0.0000    0.0000   -0.0000    0.0000   -0.0000    0.0000   -0.0000
   34 S7     2px       -0.0000    0.0000    0.0000    0.0000   -0.0000   -0.0000    0.0000    0.0000   -0.0000    0.0000
   35 S7     3px        0.0000    0.0000   -0.0000   -0.0000   -0.0000    0.0000   -0.0000   -0.0000   -0.0000   -0.0000
   36 S7     2py       -0.0000   -0.0000   -0.0000    0.0000   -0.0000   -0.0000   -0.0000    0.0000    0.0000    0.0000
   37 S7     3py       -0.0000   -0.0000   -0.0000    0.0000    0.0000   -0.0000   -0.0000    0.0000    0.0000    0.0000
   38 S7     2pz        0.0000    0.0000    0.0000   -0.0000    0.0000    0.0000    0.0000   -0.0000    0.0000   -0.0000
   39 S7     3pz        0.0000    0.0000    0.0000   -0.0000    0.0000    0.0000    0.0000   -0.0000    0.0000   -0.0000
   40 O8     1s         0.0000    0.0000    0.0000   -0.0000    0.0000    0.0000    0.0000   -0.0000    0.0000   -0.0000
   41 O8     2s         0.0000    0.0000   -0.0000   -0.0000    0.0000    0.0000   -0.0000   -0.0000   -0.0000   -0.0000
   42 O8     2px        0.0000    0.0000   -0.0000    0.0000   -0.0000    0.0000   -0.0000    0.0000   -0.0000    0.0000
   43 O8     2py       -0.0000   -0.0000    0.0000   -0.0000    0.0000   -0.0000    0.0000   -0.0000    0.0000   -0.0000
   44 O8     2pz        0.0000    0.0000   -0.0000    0.0000    0.0000    0.0000   -0.0000    0.0000    0.0000    0.0000
   45 U9     1s         1.0000   -0.0000    0.0000   -0.0000    0.0000    0.0000   -0.0000    0.0000   -0.0000   -0.0000
   46 U9     2s         0.0000    1.0000    0.0000   -0.0000    0.0000   -0.0000    0.0000   -0.0000    0.0000    0.0000
   47 U9     3s        -0.0000    0.0000   -0.0000    0.0000   -0.0000    1.0000    0.0001   -0.0000    0.0000    0.0000
   48 U9     4s         0.0000   -0.0000    0.0000   -0.0000    0.0000   -0.0000   -0.0000    0.0000   -0.0000   -0.0000
   49 U9     5s        -0.0000    0.0000   -0.0000    0.0000   -0.0000    0.0000    0.0000   -0.0000    0.0000    0.0000
   50 U9     6s         0.0000   -0.0000   -0.0000   -0.0000    0.0000    0.0000   -0.0000    0.0000   -0.0000   -0.0000
   51 U9     7s        -0.0000    0.0000   -0.0000    0.0000    0.0000   -0.0000   -0.0000    0.0000    0.0000    0.0000
   52 U9     2px        0.0000    0.0000    0.5356    0.8418   -0.0670   -0.0000   -0.0000   -0.0000    0.0000    0.0000
   53 U9     3px       -0.0000    0.0000    0.0000    0.0000   -0.0000   -0.0000    0.3424    0.9363   -0.0776    0.0000
   54 U9     4px        0.0000   -0.0000   -0.0000   -0.0000    0.0000    0.0000   -0.0000   -0.0000    0.0000    0.0000
   55 U9     5px       -0.0000    0.0000    0.0000    0.0000   -0.0000   -0.0000    0.0000    0.0000   -0.0000    0.0000
   56 U9     6px        0.0000    0.0000   -0.0000   -0.0000   -0.0000    0.0000   -0.0000   -0.0000   -0.0000   -0.0000
   57 U9     7px        0.0000    0.0000    0.0000    0.0000   -0.0000    0.0000    0.0000    0.0000   -0.0000    0.0000
   58 U9     2py       -0.0000   -0.0000    0.8444   -0.5329    0.0540    0.0000   -0.0000    0.0000   -0.0000   -0.0000
   59 U9     3py        0.0000   -0.0000    0.0000   -0.0000    0.0000   -0.0001    0.9394   -0.3395    0.0480   -0.0000
   60 U9     4py       -0.0000    0.0000   -0.0000    0.0000   -0.0000   -0.0000   -0.0000    0.0000   -0.0000    0.0000
   61 U9     5py        0.0000   -0.0000    0.0000   -0.0000    0.0000    0.0000    0.0000   -0.0000    0.0000    0.0000
   62 U9     6py       -0.0000   -0.0000   -0.0000    0.0000   -0.0000   -0.0000   -0.0000    0.0000    0.0000   -0.0000
   63 U9     7py       -0.0000   -0.0000    0.0000   -0.0000   -0.0000   -0.0000    0.0000   -0.0000    0.0000    0.0000
   64 U9     2pz       -0.0000   -0.0000   -0.0098    0.0854    0.9963    0.0000    0.0000   -0.0000   -0.0000    0.0000
   65 U9     3pz        0.0000   -0.0000   -0.0000    0.0000    0.0000   -0.0000   -0.0186    0.0894    0.9958    0.0000
   66 U9     4pz       -0.0000    0.0000    0.0000   -0.0000   -0.0000   -0.0000    0.0000   -0.0000   -0.0000   -0.0000
   67 U9     5pz        0.0000   -0.0000   -0.0000    0.0000    0.0000    0.0000   -0.0000    0.0000    0.0000    0.0000
   68 U9     6pz        0.0000    0.0000   -0.0000   -0.0000    0.0000    0.0000   -0.0000   -0.0000    0.0000    0.0000
   69 U9     7pz        0.0000    0.0000   -0.0000    0.0000    0.0000    0.0000   -0.0000    0.0000    0.0000    0.0000
   70 U9     3d2-       0.0000    0.0000   -0.0000   -0.0000    0.0000    0.0000   -0.0000   -0.0000    0.0000    0.1391
   71 U9     4d2-       0.0000   -0.0000    0.0000    0.0000   -0.0000    0.0000   -0.0000   -0.0000    0.0000   -0.0000
   72 U9     5d2-      -0.0000    0.0000   -0.0000   -0.0000    0.0000   -0.0000    0.0000    0.0000   -0.0000    0.0000
   73 U9     6d2-      -0.0000   -0.0000   -0.0000    0.0000    0.0000   -0.0000   -0.0000   -0.0000    0.0000   -0.0000
   74 U9     3d1-       0.0000   -0.0000   -0.0000   -0.0000   -0.0000   -0.0000   -0.0000   -0.0000   -0.0000    0.0584
   75 U9     4d1-       0.0000    0.0000    0.0000    0.0000    0.0000   -0.0000   -0.0000   -0.0000   -0.0000   -0.0000
   76 U9     5d1-      -0.0000    0.0000   -0.0000   -0.0000   -0.0000    0.0000    0.0000    0.0000    0.0000    0.0000
   77 U9     6d1-       0.0000    0.0000   -0.0000    0.0000   -0.0000    0.0000   -0.0000    0.0000   -0.0000   -0.0000
   78 U9     3d0        0.0000   -0.0000    0.0000   -0.0000   -0.0000   -0.0001    0.0000   -0.0000   -0.0000    0.0047
   79 U9     4d0       -0.0000    0.0000   -0.0000    0.0000    0.0000   -0.0000    0.0000    0.0000   -0.0000   -0.0000
   80 U9     5d0       -0.0000    0.0000    0.0000   -0.0000   -0.0000    0.0000   -0.0000    0.0000    0.0000    0.0000
   81 U9     6d0        0.0000    0.0000    0.0000    0.0000    0.0000    0.0000    0.0000    0.0000   -0.0000   -0.0000
   82 U9     3d1+      -0.0000    0.0000   -0.0000   -0.0000    0.0000    0.0000   -0.0000   -0.0000    0.0000    0.0708
   83 U9     4d1+       0.0000    0.0000    0.0000    0.0000   -0.0000    0.0000   -0.0000   -0.0000    0.0000   -0.0000
   84 U9     5d1+       0.0000   -0.0000   -0.0000   -0.0000    0.0000   -0.0000    0.0000    0.0000   -0.0000    0.0000
   85 U9     6d1+      -0.0000   -0.0000   -0.0000   -0.0000    0.0000   -0.0000   -0.0000   -0.0000    0.0000   -0.0000
   86 U9     3d2+      -0.0000   -0.0000    0.0000   -0.0000    0.0000   -0.0000    0.0000   -0.0000    0.0000    0.9860
   87 U9     4d2+      -0.0000    0.0000   -0.0000    0.0000   -0.0000   -0.0000    0.0000   -0.0000    0.0000   -0.0000
   88 U9     5d2+       0.0000   -0.0000    0.0000   -0.0000    0.0000    0.0000   -0.0000    0.0000   -0.0000    0.0000
   89 U9     6d2+       0.0000    0.0000    0.0000    0.0000   -0.0000    0.0000    0.0000   -0.0000   -0.0000   -0.0000
   90 U9     4f3-       0.0000   -0.0000   -0.0000    0.0000   -0.0000   -0.0000   -0.0000    0.0000   -0.0000   -0.0000
   91 U9     5f3-       0.0000    0.0000    0.0000   -0.0000    0.0000    0.0000    0.0000   -0.0000    0.0000    0.0000
   92 U9     4f2-       0.0000    0.0000    0.0000   -0.0000    0.0000   -0.0000    0.0000   -0.0000    0.0000   -0.0000
   93 U9     5f2-       0.0000    0.0000    0.0000    0.0000   -0.0000    0.0000   -0.0000    0.0000   -0.0000    0.0000
   94 U9     4f1-      -0.0000   -0.0000   -0.0000    0.0000   -0.0000    0.0000   -0.0000    0.0000   -0.0000   -0.0000
   95 U9     5f1-       0.0000    0.0000    0.0000   -0.0000    0.0000   -0.0000    0.0000   -0.0000    0.0000    0.0000
   96 U9     4f0        0.0000    0.0000    0.0000   -0.0000   -0.0000    0.0000    0.0000   -0.0000   -0.0000    0.0000
   97 U9     5f0        0.0000   -0.0000   -0.0000    0.0000    0.0000    0.0000   -0.0000    0.0000    0.0000   -0.0000
   98 U9     4f1+       0.0000    0.0000   -0.0000   -0.0000    0.0000    0.0000   -0.0000   -0.0000    0.0000    0.0000
   99 U9     5f1+       0.0000   -0.0000    0.0000    0.0000   -0.0000   -0.0000    0.0000    0.0000   -0.0000   -0.0000
  100 U9     4f2+      -0.0000   -0.0000    0.0000    0.0000   -0.0000   -0.0000    0.0000    0.0000   -0.0000   -0.0000
  101 U9     5f2+      -0.0000   -0.0000   -0.0000   -0.0000    0.0000   -0.0000   -0.0000   -0.0000    0.0000    0.0000
  102 U9     4f3+      -0.0000    0.0000   -0.0000    0.0000    0.0000    0.0000    0.0000    0.0000    0.0000    0.0000
  103 U9     5f3+      -0.0000   -0.0000   -0.0000   -0.0000    0.0000   -0.0000   -0.0000   -0.0000   -0.0000   -0.0000
  104 O10    1s         0.0000    0.0000    0.0000   -0.0000   -0.0000    0.0000    0.0000   -0.0000   -0.0000   -0.0000
  105 O10    2s        -0.0000    0.0000    0.0000   -0.0000   -0.0000   -0.0000   -0.0000   -0.0000   -0.0000   -0.0000
  106 O10    2px       -0.0000   -0.0000   -0.0000   -0.0000    0.0000   -0.0000   -0.0000   -0.0000    0.0000   -0.0000
  107 O10    2py        0.0000    0.0000   -0.0000    0.0000   -0.0000    0.0000   -0.0000    0.0000   -0.0000   -0.0000
  108 O10    2pz        0.0000    0.0000    0.0000    0.0000    0.0000    0.0000   -0.0000    0.0000    0.0000   -0.0000
  109 O11    1s         0.0000    0.0000    0.0000    0.0000    0.0000    0.0000    0.0000    0.0000    0.0000   -0.0000
  110 O11    2s         0.0000    0.0000    0.0000    0.0000    0.0000    0.0000    0.0000    0.0000    0.0000   -0.0000
  111 O11    2px       -0.0000   -0.0000    0.0000   -0.0000    0.0000   -0.0000    0.0000    0.0000   -0.0000    0.0000
  112 O11    2py       -0.0000   -0.0000    0.0000   -0.0000    0.0000   -0.0000    0.0000    0.0000    0.0000    0.0000
  113 O11    2pz       -0.0000   -0.0000    0.0000    0.0000    0.0000   -0.0000    0.0000    0.0000    0.0000    0.0000
  114 O12    1s         0.0000    0.0000    0.0000    0.0000    0.0000    0.0000    0.0000    0.0000    0.0000    0.0000
  115 O12    2s         0.0000    0.0000    0.0000    0.0000    0.0000    0.0000    0.0000    0.0000    0.0000    0.0000
  116 O12    2px        0.0000    0.0000    0.0000    0.0000    0.0000    0.0000    0.0000    0.0000   -0.0000    0.0000
  117 O12    2py        0.0000    0.0000    0.0000    0.0000   -0.0000    0.0000    0.0000    0.0000   -0.0000    0.0000
  118 O12    2pz       -0.0000   -0.0000   -0.0000   -0.0000   -0.0000   -0.0000   -0.0000   -0.0000   -0.0000    0.0000
  119 H13    1s        -0.0000   -0.0000   -0.0000   -0.0000   -0.0000   -0.0000   -0.0000   -0.0000   -0.0000    0.0000
  120 O14    1s         0.0000    0.0000   -0.0000   -0.0000    0.0000    0.0000   -0.0000   -0.0000    0.0000    0.0000
  121 O14    2s        -0.0000    0.0000   -0.0000   -0.0000    0.0000    0.0000   -0.0000   -0.0000    0.0000    0.0000
  122 O14    2px        0.0000    0.0000   -0.0000   -0.0000   -0.0000    0.0000   -0.0000   -0.0000   -0.0000   -0.0000
  123 O14    2py       -0.0000   -0.0000   -0.0000    0.0000    0.0000   -0.0000   -0.0000    0.0000    0.0000   -0.0000
  124 O14    2pz       -0.0000   -0.0000   -0.0000   -0.0000    0.0000   -0.0000   -0.0000   -0.0000    0.0000    0.0000
  125 H15    1s         0.0000    0.0000   -0.0000    0.0000   -0.0000    0.0000   -0.0000    0.0000   -0.0000   -0.0000
  126 H16    1s         0.0000    0.0000   -0.0000    0.0000   -0.0000    0.0000   -0.0000    0.0000   -0.0000   -0.0000
  127 H17    1s         0.0000    0.0000   -0.0000    0.0000   -0.0000    0.0000   -0.0000    0.0000   -0.0000    0.0000
  128 H18    1s         0.0000    0.0000   -0.0000    0.0000   -0.0000    0.0000   -0.0000    0.0000   -0.0000    0.0000
  129 H19    1s        -0.0000   -0.0000    0.0000   -0.0000    0.0000   -0.0000    0.0000   -0.0000    0.0000   -0.0000
 
 
      Orbital               11        12        13        14        15        16        17        18        19        20
      Energy         -135.0972 -135.0942 -135.0940 -135.0928  -92.4108  -54.2551  -42.0377  -42.0371  -42.0236  -28.7982
      Occ. No.          2.0000    2.0000    2.0000    2.0000    2.0000    2.0000    2.0000    2.0000    2.0000    2.0000
 
    1 C1     1s        -0.0000   -0.0000    0.0000    0.0000   -0.0000    0.0000   -0.0000    0.0000   -0.0000    0.0000
    2 C1     2s        -0.0000   -0.0000    0.0000    0.0000   -0.0000    0.0000   -0.0000    0.0000   -0.0000    0.0000
    3 C1     2px       -0.0000    0.0000    0.0000    0.0000   -0.0000    0.0000   -0.0000   -0.0000   -0.0000    0.0000
    4 C1     2py        0.0000    0.0000   -0.0000    0.0000    0.0000    0.0000    0.0000   -0.0000    0.0000   -0.0000
    5 C1     2pz        0.0000   -0.0000    0.0000   -0.0000    0.0000    0.0000   -0.0000    0.0000   -0.0000   -0.0000
    6 C2     1s        -0.0000   -0.0000    0.0000    0.0000   -0.0000   -0.0000   -0.0000    0.0000   -0.0000    0.0000
    7 C2     2s        -0.0000   -0.0000    0.0000    0.0000   -0.0000   -0.0000   -0.0000    0.0000   -0.0000    0.0000
    8 C2     2px       -0.0000   -0.0000   -0.0000    0.0000    0.0000    0.0000   -0.0000   -0.0000   -0.0000    0.0000
    9 C2     2py        0.0000   -0.0000    0.0000   -0.0000   -0.0000    0.0000   -0.0000    0.0000   -0.0000   -0.0000
   10 C2     2pz        0.0000    0.0000   -0.0000   -0.0000   -0.0000    0.0000   -0.0000    0.0000   -0.0000   -0.0000
   11 C3     1s        -0.0000    0.0000   -0.0000    0.0000    0.0000   -0.0000    0.0000   -0.0000    0.0000    0.0000
   12 C3     2s        -0.0000    0.0000   -0.0000    0.0000   -0.0000    0.0000    0.0000   -0.0000    0.0000    0.0000
   13 C3     2px       -0.0000    0.0000   -0.0000    0.0000   -0.0000   -0.0000   -0.0000   -0.0000    0.0000    0.0000
   14 C3     2py        0.0000   -0.0000    0.0000   -0.0000    0.0000   -0.0000   -0.0000   -0.0000   -0.0000   -0.0000
   15 C3     2pz       -0.0000   -0.0000    0.0000   -0.0000    0.0000   -0.0000    0.0000   -0.0000   -0.0000    0.0000
   16 C4     1s        -0.0000    0.0000   -0.0000    0.0000   -0.0000    0.0000   -0.0000    0.0000   -0.0000    0.0000
   17 C4     2s        -0.0000    0.0000   -0.0000    0.0000   -0.0000    0.0000   -0.0000    0.0000   -0.0000    0.0000
   18 C4     2px        0.0000   -0.0000   -0.0000    0.0000   -0.0000    0.0000   -0.0000   -0.0000    0.0000   -0.0000
   19 C4     2py        0.0000    0.0000   -0.0000   -0.0000    0.0000   -0.0000    0.0000   -0.0000    0.0000   -0.0000
   20 C4     2pz        0.0000    0.0000    0.0000   -0.0000    0.0000   -0.0000    0.0000   -0.0000   -0.0000   -0.0000
   21 C5     1s        -0.0000   -0.0000    0.0000   -0.0000   -0.0000    0.0000   -0.0000    0.0000   -0.0000    0.0000
   22 C5     2s        -0.0000   -0.0000    0.0000   -0.0000    0.0000    0.0000   -0.0000    0.0000   -0.0000    0.0000
   23 C5     2px        0.0000   -0.0000    0.0000   -0.0000    0.0000    0.0000   -0.0000   -0.0000   -0.0000   -0.0000
   24 C5     2py        0.0000    0.0000   -0.0000    0.0000   -0.0000   -0.0000    0.0000   -0.0000    0.0000   -0.0000
   25 C5     2pz        0.0000    0.0000   -0.0000    0.0000   -0.0000   -0.0000    0.0000   -0.0000    0.0000   -0.0000
   26 C6     1s        -0.0000    0.0000   -0.0000    0.0000   -0.0000    0.0000    0.0000   -0.0000    0.0000    0.0000
   27 C6     2s        -0.0000    0.0000   -0.0000    0.0000   -0.0000    0.0000    0.0000   -0.0000    0.0000    0.0000
   28 C6     2px       -0.0000    0.0000   -0.0000    0.0000   -0.0000    0.0000   -0.0000   -0.0000    0.0000    0.0000
   29 C6     2py        0.0000   -0.0000   -0.0000    0.0000    0.0000   -0.0000   -0.0000   -0.0000    0.0000   -0.0000
   30 C6     2pz        0.0000   -0.0000    0.0000   -0.0000    0.0000   -0.0000   -0.0000    0.0000    0.0000   -0.0000
   31 S7     1s        -0.0000    0.0000   -0.0000    0.0000    1.0000   -0.0000    0.0000   -0.0000    0.0000    0.0000
   32 S7     2s        -0.0000    0.0000   -0.0000    0.0000   -0.0000   -0.0000    0.0000   -0.0000    0.0000    0.0000
   33 S7     3s        -0.0000    0.0000   -0.0000    0.0000   -0.0004   -0.0000    0.0000   -0.0000    0.0000    0.0000
   34 S7     2px        0.0000   -0.0000    0.0000    0.0000   -0.0000    0.0000    0.0000    0.0000   -0.0000   -0.0000
   35 S7     3px       -0.0000   -0.0000    0.0000    0.0000    0.0000    0.0000    0.0000    0.0000   -0.0000    0.0000
   36 S7     2py       -0.0000    0.0000    0.0000    0.0000   -0.0001   -0.0000   -0.0000    0.0000   -0.0000    0.0000
   37 S7     3py       -0.0000    0.0000   -0.0000   -0.0000    0.0000   -0.0000   -0.0000    0.0000    0.0000   -0.0000
   38 S7     2pz        0.0000    0.0000   -0.0000   -0.0000    0.0001    0.0000    0.0000    0.0000    0.0000   -0.0000
   39 S7     3pz        0.0000    0.0000   -0.0000   -0.0000   -0.0000    0.0000    0.0000    0.0000    0.0000   -0.0000
   40 O8     1s        -0.0000    0.0000   -0.0000    0.0000    0.0000    0.0000    0.0000   -0.0000    0.0000    0.0000
   41 O8     2s        -0.0000    0.0000   -0.0000    0.0000    0.0000    0.0000    0.0000   -0.0000    0.0000    0.0000
   42 O8     2px        0.0000   -0.0000    0.0000    0.0000    0.0000    0.0000   -0.0000    0.0000   -0.0000   -0.0000
   43 O8     2py       -0.0000   -0.0000    0.0000   -0.0000   -0.0000   -0.0000    0.0000   -0.0000    0.0000    0.0000
   44 O8     2pz        0.0000    0.0000   -0.0000    0.0000    0.0000    0.0000   -0.0000    0.0000    0.0000   -0.0000
   45 U9     1s        -0.0000    0.0000    0.0000   -0.0000   -0.0000   -0.0000   -0.0000   -0.0000    0.0000   -0.0000
   46 U9     2s        -0.0000    0.0000    0.0000    0.0000   -0.0000    0.0000   -0.0000    0.0000   -0.0000    0.0000
   47 U9     3s         0.0000    0.0000   -0.0000    0.0001   -0.0000    0.0000    0.0000   -0.0000    0.0000   -0.0000
   48 U9     4s         0.0000   -0.0000   -0.0000    0.0000   -0.0000    1.0000    0.0002   -0.0001    0.0000   -0.0000
   49 U9     5s        -0.0000    0.0000    0.0000   -0.0000   -0.0000   -0.0001   -0.0000    0.0000   -0.0000    0.0000
   50 U9     6s         0.0000   -0.0000   -0.0000    0.0000   -0.0000    0.0000   -0.0000   -0.0000    0.0000   -0.0000
   51 U9     7s        -0.0000   -0.0000   -0.0000   -0.0000   -0.0000   -0.0000   -0.0000    0.0000   -0.0000    0.0000
   52 U9     2px        0.0000   -0.0000    0.0000   -0.0000   -0.0000    0.0000    0.0000    0.0000   -0.0000   -0.0000
   53 U9     3px        0.0000   -0.0000    0.0000   -0.0000   -0.0000   -0.0000    0.0000    0.0000   -0.0000    0.0000
   54 U9     4px       -0.0000   -0.0000   -0.0000    0.0000   -0.0000    0.0000    0.3207    0.9441   -0.0768    0.0002
   55 U9     5px        0.0000    0.0000    0.0000    0.0000   -0.0000    0.0000   -0.0001   -0.0002    0.0000   -0.0000
   56 U9     6px       -0.0000    0.0000   -0.0000    0.0000   -0.0000    0.0000    0.0000    0.0000   -0.0000    0.0000
   57 U9     7px        0.0000    0.0000    0.0000   -0.0000   -0.0000    0.0000   -0.0000   -0.0000   -0.0000   -0.0000
   58 U9     2py        0.0000    0.0000   -0.0000   -0.0000   -0.0000   -0.0000    0.0000   -0.0000    0.0000   -0.0000
   59 U9     3py        0.0000    0.0000   -0.0000   -0.0000   -0.0000    0.0000    0.0000   -0.0000    0.0000    0.0000
   60 U9     4py       -0.0000   -0.0000    0.0000    0.0000   -0.0000   -0.0002    0.9469   -0.3176    0.0494   -0.0000
   61 U9     5py        0.0000    0.0000    0.0000   -0.0000   -0.0000    0.0000   -0.0002    0.0001   -0.0000   -0.0000
   62 U9     6py       -0.0000    0.0000    0.0000    0.0000   -0.0000   -0.0000    0.0000   -0.0000    0.0000    0.0000
   63 U9     7py        0.0000    0.0000    0.0000   -0.0000   -0.0000   -0.0000   -0.0000    0.0000   -0.0000   -0.0000
   64 U9     2pz        0.0000    0.0000   -0.0000    0.0000    0.0000   -0.0000   -0.0000    0.0000    0.0000   -0.0000
   65 U9     3pz        0.0000    0.0000   -0.0000    0.0000    0.0000    0.0000   -0.0000    0.0000    0.0000    0.0000
   66 U9     4pz       -0.0000   -0.0000    0.0000   -0.0000    0.0000   -0.0000   -0.0222    0.0886    0.9958    0.0000
   67 U9     5pz        0.0000    0.0000   -0.0000    0.0000    0.0000   -0.0000    0.0000   -0.0000   -0.0001   -0.0000
   68 U9     6pz        0.0000   -0.0000    0.0000    0.0000    0.0000    0.0000   -0.0000    0.0000    0.0001    0.0000
   69 U9     7pz        0.0000   -0.0000   -0.0000    0.0000    0.0000    0.0000   -0.0000   -0.0000   -0.0000   -0.0000
   70 U9     3d2-       0.9860   -0.0521    0.0737   -0.0192   -0.0000   -0.0000    0.0000    0.0000   -0.0000    0.0000
   71 U9     4d2-      -0.0000    0.0000   -0.0000    0.0000   -0.0000    0.0000   -0.0000   -0.0002    0.0000    0.9954
   72 U9     5d2-       0.0000   -0.0000    0.0000   -0.0000   -0.0000    0.0000   -0.0000    0.0000   -0.0000   -0.0003
   73 U9     6d2-      -0.0000    0.0000   -0.0000   -0.0000    0.0000   -0.0000   -0.0000   -0.0000    0.0000    0.0001
   74 U9     3d1-       0.0677    0.9349   -0.3342    0.0794    0.0000   -0.0000    0.0000    0.0000    0.0000    0.0000
   75 U9     4d1-      -0.0000   -0.0000    0.0000   -0.0000    0.0000   -0.0000   -0.0000   -0.0000   -0.0002    0.0746
   76 U9     5d1-       0.0000    0.0000   -0.0000    0.0000    0.0000    0.0000   -0.0000    0.0000   -0.0000   -0.0000
   77 U9     6d1-       0.0000   -0.0000    0.0000    0.0000    0.0000    0.0000    0.0000    0.0000   -0.0000    0.0000
   78 U9     3d0        0.0055   -0.0297    0.1533    0.9877    0.0000   -0.0000   -0.0000   -0.0000   -0.0000   -0.0000
   79 U9     4d0        0.0000    0.0000   -0.0000   -0.0000    0.0000   -0.0004    0.0001   -0.0000   -0.0000   -0.0209
   80 U9     5d0       -0.0000   -0.0000    0.0000    0.0000    0.0000    0.0000   -0.0000    0.0000    0.0000   -0.0000
   81 U9     6d0        0.0000   -0.0000   -0.0000    0.0000    0.0000    0.0000    0.0000    0.0000   -0.0000    0.0000
   82 U9     3d1+      -0.0636    0.3423    0.9252   -0.1333    0.0000    0.0000    0.0000    0.0000   -0.0000   -0.0000
   83 U9     4d1+       0.0000   -0.0000   -0.0000    0.0000    0.0000    0.0000   -0.0000   -0.0000    0.0001   -0.0503
   84 U9     5d1+      -0.0000    0.0000    0.0000    0.0000    0.0000   -0.0000   -0.0000   -0.0000    0.0000    0.0000
   85 U9     6d1+       0.0000   -0.0000   -0.0000   -0.0000    0.0000   -0.0000    0.0000    0.0000    0.0000   -0.0000
   86 U9     3d2+      -0.1385   -0.0724   -0.0578    0.0029    0.0000    0.0000   -0.0000   -0.0000    0.0000   -0.0000
   87 U9     4d2+       0.0000    0.0000    0.0000   -0.0000    0.0000   -0.0000    0.0002   -0.0000    0.0000   -0.0270
   88 U9     5d2+      -0.0000   -0.0000   -0.0000    0.0000    0.0000   -0.0000   -0.0000    0.0000   -0.0000    0.0000
   89 U9     6d2+       0.0000    0.0000    0.0000    0.0000    0.0000    0.0000    0.0000   -0.0000    0.0000   -0.0000
   90 U9     4f3-       0.0000    0.0000    0.0000    0.0000    0.0000   -0.0000    0.0000    0.0000    0.0000    0.0000
   91 U9     5f3-      -0.0000   -0.0000   -0.0000   -0.0000    0.0000    0.0000   -0.0000    0.0000   -0.0000   -0.0000
   92 U9     4f2-      -0.0000   -0.0000   -0.0000    0.0000    0.0000    0.0000    0.0000   -0.0000    0.0000   -0.0000
   93 U9     5f2-       0.0000    0.0000    0.0000   -0.0000    0.0000   -0.0000   -0.0000    0.0000    0.0000   -0.0000
   94 U9     4f1-       0.0000   -0.0000   -0.0000   -0.0000    0.0000   -0.0000   -0.0002    0.0000   -0.0000    0.0000
   95 U9     5f1-      -0.0000    0.0000    0.0000    0.0000    0.0000    0.0000    0.0000   -0.0000    0.0000    0.0000
   96 U9     4f0        0.0000    0.0000   -0.0000   -0.0000   -0.0000    0.0000    0.0000   -0.0000   -0.0002    0.0000
   97 U9     5f0       -0.0000   -0.0000    0.0000    0.0000    0.0000   -0.0000   -0.0000    0.0000    0.0000   -0.0000
   98 U9     4f1+       0.0000   -0.0000   -0.0000    0.0000   -0.0000    0.0000   -0.0001   -0.0002    0.0000    0.0000
   99 U9     5f1+      -0.0000    0.0000    0.0000   -0.0000   -0.0000   -0.0000    0.0000    0.0000   -0.0000   -0.0000
  100 U9     4f2+       0.0000    0.0000   -0.0000    0.0000   -0.0000   -0.0000    0.0000    0.0000   -0.0000    0.0000
  101 U9     5f2+      -0.0000   -0.0000    0.0000   -0.0000   -0.0000   -0.0000   -0.0000   -0.0000   -0.0000   -0.0000
  102 U9     4f3+       0.0000   -0.0000    0.0000   -0.0000    0.0000    0.0000   -0.0000   -0.0000   -0.0000    0.0001
  103 U9     5f3+      -0.0000    0.0000   -0.0000    0.0000    0.0000   -0.0000   -0.0000    0.0000    0.0000    0.0000
  104 O10    1s        -0.0000    0.0000    0.0000   -0.0000    0.0000    0.0000    0.0000   -0.0000   -0.0000   -0.0000
  105 O10    2s        -0.0000    0.0000    0.0000   -0.0000    0.0000    0.0000    0.0000   -0.0000   -0.0000   -0.0000
  106 O10    2px        0.0000   -0.0000   -0.0000    0.0000    0.0000   -0.0000   -0.0000   -0.0000    0.0000   -0.0000
  107 O10    2py       -0.0000   -0.0000    0.0000   -0.0000    0.0000    0.0000   -0.0000    0.0000   -0.0000    0.0000
  108 O10    2pz        0.0000   -0.0000    0.0000    0.0000    0.0000    0.0000    0.0000    0.0000    0.0000    0.0000
  109 O11    1s         0.0000    0.0000   -0.0000    0.0000    0.0000    0.0000    0.0000    0.0000    0.0000   -0.0000
  110 O11    2s         0.0000    0.0000   -0.0000    0.0000    0.0000    0.0000    0.0000    0.0000    0.0000   -0.0000
  111 O11    2px        0.0000   -0.0000   -0.0000   -0.0000   -0.0000   -0.0000    0.0000    0.0000   -0.0000   -0.0000
  112 O11    2py        0.0000    0.0000    0.0000   -0.0000   -0.0000   -0.0000    0.0000    0.0000   -0.0000    0.0000
  113 O11    2pz       -0.0000    0.0000    0.0000    0.0000    0.0000   -0.0000    0.0000    0.0000    0.0000   -0.0000
  114 O12    1s         0.0000   -0.0000   -0.0000    0.0000   -0.0000    0.0000    0.0000    0.0000    0.0000   -0.0000
  115 O12    2s         0.0000   -0.0000   -0.0000    0.0000   -0.0000    0.0000    0.0000    0.0000    0.0000   -0.0000
  116 O12    2px       -0.0000    0.0000    0.0000    0.0000   -0.0000    0.0000    0.0000    0.0000   -0.0000    0.0000
  117 O12    2py       -0.0000    0.0000    0.0000    0.0000    0.0000    0.0000    0.0000    0.0000   -0.0000    0.0000
  118 O12    2pz        0.0000   -0.0000   -0.0000    0.0000   -0.0000   -0.0000   -0.0000   -0.0000   -0.0000   -0.0000
  119 H13    1s         0.0000    0.0000    0.0000    0.0000   -0.0000   -0.0000   -0.0000   -0.0000   -0.0000   -0.0000
  120 O14    1s         0.0000   -0.0000    0.0000   -0.0000    0.0000    0.0000   -0.0000   -0.0000    0.0000   -0.0000
  121 O14    2s        -0.0000   -0.0000    0.0000   -0.0000    0.0000    0.0000   -0.0000   -0.0000    0.0000   -0.0000
  122 O14    2px        0.0000    0.0000    0.0000    0.0000    0.0000    0.0000   -0.0000   -0.0000   -0.0000   -0.0000
  123 O14    2py       -0.0000    0.0000   -0.0000   -0.0000    0.0000   -0.0000   -0.0000    0.0000    0.0000    0.0000
  124 O14    2pz       -0.0000   -0.0000    0.0000   -0.0000   -0.0000   -0.0000   -0.0000   -0.0000    0.0000    0.0000
  125 H15    1s        -0.0000   -0.0000   -0.0000    0.0000   -0.0000    0.0000   -0.0000    0.0000   -0.0000    0.0000
  126 H16    1s        -0.0000   -0.0000    0.0000    0.0000    0.0000    0.0000   -0.0000    0.0000   -0.0000    0.0000
  127 H17    1s        -0.0000   -0.0000    0.0000    0.0000    0.0000    0.0000   -0.0000    0.0000   -0.0000    0.0000
  128 H18    1s        -0.0000   -0.0000    0.0000   -0.0000    0.0000    0.0000   -0.0000    0.0000   -0.0000    0.0000
  129 H19    1s        -0.0000    0.0000   -0.0000   -0.0000    0.0000   -0.0000    0.0000   -0.0000    0.0000   -0.0000
 
 
      Orbital               21        22        23        24        25        26        27        28        29        30
      Energy          -28.7980  -28.7904  -28.7902  -28.7861  -20.2809  -20.2700  -20.2601  -20.2439  -20.2187  -15.0100
      Occ. No.          2.0000    2.0000    2.0000    2.0000    2.0000    2.0000    2.0000    2.0000    2.0000    2.0000
 
    1 C1     1s        -0.0000    0.0000   -0.0000    0.0000   -0.0000    0.0000   -0.0000   -0.0000   -0.0000   -0.0000
    2 C1     2s        -0.0000    0.0000   -0.0000    0.0000   -0.0000    0.0000   -0.0000   -0.0000   -0.0000   -0.0000
    3 C1     2px       -0.0000    0.0000    0.0000   -0.0000   -0.0000    0.0000    0.0000   -0.0000    0.0000    0.0000
    4 C1     2py        0.0000   -0.0000    0.0000   -0.0000    0.0000   -0.0000   -0.0000   -0.0000    0.0000    0.0000
    5 C1     2pz       -0.0000    0.0000   -0.0000    0.0000   -0.0000    0.0000    0.0000    0.0000   -0.0000    0.0000
    6 C2     1s        -0.0000    0.0000   -0.0000    0.0000    0.0000   -0.0000   -0.0000   -0.0000    0.0000   -0.0000
    7 C2     2s        -0.0000    0.0000   -0.0000    0.0000    0.0000   -0.0000   -0.0000   -0.0000    0.0000   -0.0000
    8 C2     2px        0.0000    0.0000    0.0000    0.0000    0.0000   -0.0000   -0.0000    0.0000    0.0000    0.0000
    9 C2     2py       -0.0000    0.0000   -0.0000   -0.0000   -0.0000    0.0000   -0.0000   -0.0000   -0.0000    0.0000
   10 C2     2pz       -0.0000   -0.0000    0.0000    0.0000   -0.0000   -0.0000    0.0000    0.0000   -0.0000   -0.0000
   11 C3     1s         0.0000   -0.0000    0.0000    0.0000    0.0000   -0.0000    0.0000    0.0000    0.0000   -0.0000
   12 C3     2s         0.0000   -0.0000    0.0000    0.0000    0.0000   -0.0000    0.0000    0.0000    0.0000   -0.0000
   13 C3     2px        0.0000   -0.0000    0.0000    0.0000    0.0000   -0.0000   -0.0000    0.0000    0.0000    0.0000
   14 C3     2py       -0.0000    0.0000   -0.0000   -0.0000   -0.0000    0.0000    0.0000    0.0000   -0.0000    0.0000
   15 C3     2pz       -0.0000   -0.0000    0.0000   -0.0000    0.0000    0.0000    0.0000    0.0000   -0.0000   -0.0000
   16 C4     1s         0.0000   -0.0000    0.0000    0.0000    0.0000   -0.0000   -0.0000   -0.0000    0.0000    0.0000
   17 C4     2s         0.0000    0.0000    0.0000    0.0000    0.0000   -0.0000   -0.0000   -0.0000    0.0000    0.0000
   18 C4     2px       -0.0000    0.0000    0.0000   -0.0000    0.0000   -0.0000    0.0000   -0.0000    0.0000    0.0000
   19 C4     2py        0.0000   -0.0000    0.0000   -0.0000   -0.0000    0.0000    0.0000    0.0000   -0.0000   -0.0000
   20 C4     2pz       -0.0000   -0.0000   -0.0000   -0.0000   -0.0000    0.0000    0.0000    0.0000   -0.0000   -0.0000
   21 C5     1s        -0.0000    0.0000   -0.0000    0.0000   -0.0000   -0.0000   -0.0000   -0.0000    0.0000    0.0000
   22 C5     2s        -0.0000    0.0000   -0.0000    0.0000    0.0000   -0.0000   -0.0000   -0.0000    0.0000   -0.0000
   23 C5     2px       -0.0000    0.0000   -0.0000    0.0000    0.0000   -0.0000   -0.0000    0.0000    0.0000   -0.0000
   24 C5     2py        0.0000   -0.0000    0.0000   -0.0000    0.0000    0.0000   -0.0000   -0.0000   -0.0000    0.0000
   25 C5     2pz        0.0000   -0.0000    0.0000   -0.0000   -0.0000    0.0000    0.0000    0.0000    0.0000   -0.0000
   26 C6     1s         0.0000   -0.0000    0.0000   -0.0000    0.0000   -0.0000   -0.0000   -0.0000    0.0000   -0.0000
   27 C6     2s         0.0000   -0.0000    0.0000   -0.0000    0.0000   -0.0000   -0.0000   -0.0000    0.0000   -0.0000
   28 C6     2px        0.0000   -0.0000    0.0000    0.0000    0.0000   -0.0000   -0.0000    0.0000    0.0000   -0.0000
   29 C6     2py       -0.0000   -0.0000    0.0000   -0.0000   -0.0000    0.0000    0.0000    0.0000   -0.0000   -0.0000
   30 C6     2pz       -0.0000    0.0000    0.0000   -0.0000   -0.0000    0.0000    0.0000    0.0000   -0.0000    0.0000
   31 S7     1s         0.0000   -0.0000    0.0000    0.0000    0.0000   -0.0000   -0.0000   -0.0000    0.0000   -0.0000
   32 S7     2s         0.0000   -0.0000    0.0000    0.0000    0.0000   -0.0000   -0.0002   -0.0003    0.0000   -0.0000
   33 S7     3s         0.0000   -0.0000    0.0000    0.0000    0.0000   -0.0000   -0.0009   -0.0010    0.0000   -0.0000
   34 S7     2px       -0.0000    0.0000   -0.0000   -0.0000    0.0000   -0.0000    0.0001   -0.0001    0.0000    0.0000
   35 S7     3px        0.0000    0.0000   -0.0000   -0.0000    0.0000   -0.0000    0.0007   -0.0008    0.0000    0.0000
   36 S7     2py       -0.0000   -0.0000   -0.0000   -0.0000   -0.0000    0.0000    0.0001    0.0001   -0.0000   -0.0000
   37 S7     3py       -0.0000   -0.0000   -0.0000   -0.0000   -0.0000    0.0000    0.0006    0.0005   -0.0000   -0.0000
   38 S7     2pz        0.0000   -0.0000    0.0000    0.0000   -0.0000   -0.0000    0.0000   -0.0000   -0.0000    0.0000
   39 S7     3pz        0.0000   -0.0000    0.0000    0.0000   -0.0000   -0.0000    0.0000   -0.0001   -0.0000    0.0000
   40 O8     1s         0.0000   -0.0000    0.0000    0.0000   -0.0000    0.0001    1.0001    0.0009   -0.0000    0.0000
   41 O8     2s         0.0000   -0.0000    0.0000    0.0000    0.0000   -0.0000    0.0018    0.0001    0.0000    0.0000
   42 O8     2px       -0.0000    0.0000   -0.0000   -0.0000   -0.0000    0.0000    0.0017    0.0000    0.0000    0.0000
   43 O8     2py        0.0000   -0.0000    0.0000   -0.0000    0.0000   -0.0000    0.0008   -0.0001   -0.0000   -0.0000
   44 O8     2pz       -0.0000   -0.0000    0.0000   -0.0000   -0.0000   -0.0000    0.0001    0.0000    0.0000    0.0000
   45 U9     1s        -0.0000    0.0000    0.0000   -0.0000   -0.0000    0.0000   -0.0000   -0.0000    0.0000   -0.0000
   46 U9     2s        -0.0000    0.0000   -0.0000   -0.0000   -0.0000    0.0000   -0.0000   -0.0000    0.0000   -0.0000
   47 U9     3s         0.0000    0.0000    0.0000    0.0000   -0.0000    0.0000   -0.0000   -0.0000    0.0000   -0.0000
   48 U9     4s         0.0000    0.0000    0.0000    0.0004   -0.0000    0.0000   -0.0000   -0.0000    0.0000   -0.0000
   49 U9     5s        -0.0000   -0.0000   -0.0000   -0.0000   -0.0002    0.0002   -0.0000   -0.0000    0.0000    0.0001
   50 U9     6s         0.0000    0.0000    0.0000   -0.0000   -0.0006    0.0006   -0.0001   -0.0001    0.0001    0.0000
   51 U9     7s        -0.0000    0.0000    0.0000   -0.0000   -0.0006    0.0006   -0.0002   -0.0002    0.0002   -0.0000
   52 U9     2px       -0.0000    0.0000   -0.0000   -0.0000   -0.0000    0.0000    0.0000   -0.0000   -0.0000    0.0000
   53 U9     3px       -0.0000   -0.0000    0.0000   -0.0000   -0.0000    0.0000    0.0000   -0.0000   -0.0000   -0.0000
   54 U9     4px       -0.0000   -0.0000    0.0000   -0.0000   -0.0000    0.0000    0.0000   -0.0000   -0.0000    0.0000
   55 U9     5px        0.0000   -0.0000   -0.0000    0.0000   -0.0000    0.0000    0.0000   -0.0000   -0.0000   -0.0000
   56 U9     6px        0.0000   -0.0000    0.0000   -0.0000   -0.0001    0.0000    0.0000   -0.0000   -0.0001    0.0000
   57 U9     7px       -0.0000   -0.0000   -0.0000    0.0000   -0.0001    0.0000   -0.0000   -0.0000   -0.0002    0.0000
   58 U9     2py        0.0000   -0.0000    0.0000    0.0000    0.0000    0.0000   -0.0000   -0.0000   -0.0000   -0.0000
   59 U9     3py       -0.0000    0.0000   -0.0000   -0.0000    0.0000    0.0000   -0.0000   -0.0000   -0.0000   -0.0000
   60 U9     4py       -0.0002    0.0000   -0.0000   -0.0001    0.0000    0.0000   -0.0000   -0.0000   -0.0000    0.0000
   61 U9     5py        0.0000   -0.0000    0.0000    0.0000    0.0000    0.0000   -0.0000   -0.0000   -0.0000    0.0000
   62 U9     6py       -0.0000    0.0000   -0.0000   -0.0000    0.0001    0.0000   -0.0001   -0.0001   -0.0002    0.0000
   63 U9     7py       -0.0000   -0.0000   -0.0000   -0.0000    0.0000    0.0001   -0.0003   -0.0002   -0.0002    0.0000
   64 U9     2pz       -0.0000   -0.0000    0.0000   -0.0000    0.0000    0.0000    0.0000   -0.0000   -0.0000   -0.0000
   65 U9     3pz        0.0000    0.0000   -0.0000    0.0000    0.0000    0.0000    0.0000   -0.0000   -0.0000   -0.0000
   66 U9     4pz        0.0000    0.0002   -0.0001    0.0000    0.0000    0.0000    0.0000   -0.0000   -0.0000    0.0000
   67 U9     5pz        0.0000   -0.0000    0.0000   -0.0000    0.0001    0.0001    0.0000   -0.0000   -0.0000    0.0000
   68 U9     6pz        0.0000    0.0000   -0.0000    0.0000    0.0006    0.0006    0.0000   -0.0000   -0.0001   -0.0000
   69 U9     7pz       -0.0000   -0.0000    0.0000    0.0000    0.0005    0.0006   -0.0000   -0.0000   -0.0001    0.0000
   70 U9     3d2-       0.0000   -0.0000    0.0000   -0.0000    0.0000   -0.0000    0.0000   -0.0000    0.0000   -0.0000
   71 U9     4d2-       0.0268   -0.0736    0.0555    0.0072    0.0000    0.0000    0.0000   -0.0000    0.0000   -0.0001
   72 U9     5d2-      -0.0000    0.0000   -0.0000   -0.0000    0.0000   -0.0000    0.0000   -0.0000    0.0000    0.0000
   73 U9     6d2-       0.0000   -0.0000    0.0000    0.0000    0.0000   -0.0000    0.0001   -0.0001    0.0002   -0.0000
   74 U9     3d1-       0.0000    0.0000   -0.0000    0.0000   -0.0000   -0.0000    0.0000    0.0000    0.0000   -0.0000
   75 U9     4d1-       0.0556    0.9901   -0.0631    0.0837   -0.0000    0.0000    0.0000   -0.0000    0.0000   -0.0000
   76 U9     5d1-      -0.0000   -0.0003    0.0000   -0.0000   -0.0000   -0.0000    0.0000   -0.0000    0.0000    0.0000
   77 U9     6d1-       0.0000    0.0001   -0.0000    0.0000   -0.0001    0.0000    0.0000    0.0000    0.0001   -0.0000
   78 U9     3d0        0.0000   -0.0000    0.0000    0.0000   -0.0000    0.0000    0.0000    0.0000   -0.0000    0.0000
   79 U9     4d0        0.0184   -0.0739    0.1400    0.9870   -0.0000    0.0000    0.0000    0.0000   -0.0000    0.0000
   80 U9     5d0       -0.0000    0.0000   -0.0000   -0.0002   -0.0001    0.0001    0.0000    0.0000   -0.0000   -0.0000
   81 U9     6d0        0.0000   -0.0000    0.0000    0.0001   -0.0005    0.0006    0.0001    0.0001   -0.0002    0.0000
   82 U9     3d1+       0.0000    0.0000    0.0000   -0.0000    0.0000    0.0000   -0.0000   -0.0000    0.0000   -0.0000
   83 U9     4d1+       0.0703    0.0741    0.9841   -0.1364    0.0000   -0.0000   -0.0000   -0.0000    0.0000   -0.0000
   84 U9     5d1+      -0.0000   -0.0000   -0.0003    0.0000    0.0000    0.0000   -0.0000   -0.0000    0.0000    0.0000
   85 U9     6d1+       0.0000    0.0000    0.0001   -0.0000    0.0001   -0.0000   -0.0000    0.0000    0.0001   -0.0000
   86 U9     3d2+       0.0000   -0.0000   -0.0000    0.0000   -0.0000   -0.0000    0.0000    0.0000   -0.0000   -0.0000
   87 U9     4d2+       0.9954   -0.0572   -0.0700   -0.0134   -0.0000    0.0000    0.0000    0.0000   -0.0000   -0.0001
   88 U9     5d2+      -0.0003    0.0000    0.0000    0.0000   -0.0000   -0.0000    0.0000    0.0000   -0.0000    0.0000
   89 U9     6d2+       0.0001   -0.0000   -0.0000    0.0000   -0.0000   -0.0000    0.0002    0.0002   -0.0000    0.0000
   90 U9     4f3-      -0.0001    0.0000    0.0000    0.0000    0.0000   -0.0000    0.0000    0.0000   -0.0000   -0.6501
   91 U9     5f3-      -0.0000   -0.0000    0.0000    0.0000   -0.0000    0.0000    0.0000    0.0000   -0.0000    0.0003
   92 U9     4f2-      -0.0000    0.0000   -0.0001    0.0000    0.0000    0.0000   -0.0000   -0.0000   -0.0000   -0.0142
   93 U9     5f2-      -0.0000    0.0000   -0.0000    0.0000   -0.0000    0.0000   -0.0000    0.0000   -0.0000    0.0000
   94 U9     4f1-      -0.0000   -0.0000   -0.0000   -0.0001    0.0000   -0.0000    0.0000    0.0000    0.0000   -0.0156
   95 U9     5f1-       0.0000   -0.0000    0.0000   -0.0000    0.0000   -0.0000    0.0000    0.0000    0.0000    0.0000
   96 U9     4f0        0.0000    0.0001   -0.0000   -0.0000    0.0000    0.0000   -0.0000    0.0000    0.0000   -0.0122
   97 U9     5f0        0.0000   -0.0000    0.0000    0.0000    0.0001    0.0001   -0.0000   -0.0000    0.0000    0.0000
   98 U9     4f1+       0.0000   -0.0000   -0.0000    0.0000   -0.0000    0.0000   -0.0000    0.0000    0.0000   -0.0193
   99 U9     5f1+       0.0000   -0.0000    0.0000    0.0000   -0.0000    0.0000   -0.0000    0.0000    0.0000    0.0000
  100 U9     4f2+      -0.0000    0.0001    0.0000    0.0000   -0.0000   -0.0000   -0.0000    0.0000    0.0000    0.1162
  101 U9     5f2+      -0.0000    0.0000    0.0000   -0.0000    0.0000   -0.0000   -0.0000    0.0000    0.0000   -0.0001
  102 U9     4f3+       0.0000   -0.0000    0.0000   -0.0000   -0.0000    0.0000   -0.0000    0.0000    0.0000    0.7503
  103 U9     5f3+      -0.0000    0.0000   -0.0000   -0.0000    0.0000   -0.0000   -0.0000    0.0000    0.0000   -0.0003
  104 O10    1s         0.0000   -0.0000    0.0000    0.0000    0.0005   -1.0001    0.0001    0.0000   -0.0000   -0.0000
  105 O10    2s         0.0000   -0.0000    0.0000    0.0000    0.0001   -0.0016   -0.0000   -0.0000    0.0001   -0.0000
  106 O10    2px        0.0000    0.0000    0.0000   -0.0000   -0.0000   -0.0000    0.0000   -0.0000    0.0000   -0.0000
  107 O10    2py        0.0000    0.0000   -0.0000    0.0000    0.0000   -0.0000    0.0000    0.0000    0.0000   -0.0000
  108 O10    2pz       -0.0000    0.0000   -0.0000   -0.0000   -0.0000    0.0012    0.0000    0.0000   -0.0000    0.0000
  109 O11    1s         0.0000   -0.0000   -0.0000    0.0000   -0.0000    0.0000   -0.0009    1.0001   -0.0000   -0.0000
  110 O11    2s         0.0000   -0.0000   -0.0000    0.0000    0.0000   -0.0000    0.0001    0.0018   -0.0000   -0.0000
  111 O11    2px       -0.0000    0.0000    0.0000    0.0000    0.0000   -0.0000   -0.0000   -0.0018    0.0000    0.0000
  112 O11    2py       -0.0000   -0.0000   -0.0000   -0.0000    0.0000    0.0000   -0.0001    0.0009    0.0000    0.0000
  113 O11    2pz       -0.0000   -0.0000   -0.0000    0.0000   -0.0000   -0.0000    0.0000   -0.0002   -0.0000   -0.0000
  114 O12    1s         0.0000    0.0000    0.0000    0.0000   -0.0000    0.0000   -0.0000   -0.0000   -1.0001    0.0000
  115 O12    2s        -0.0000    0.0000    0.0000    0.0000   -0.0000    0.0000   -0.0000    0.0000   -0.0017    0.0001
  116 O12    2px        0.0000   -0.0000   -0.0000   -0.0000   -0.0000    0.0000   -0.0000    0.0000   -0.0001    0.0000
  117 O12    2py       -0.0000   -0.0000   -0.0000   -0.0000   -0.0000    0.0000   -0.0000    0.0000    0.0000    0.0000
  118 O12    2pz        0.0000    0.0000    0.0000    0.0000   -0.0000   -0.0000   -0.0000   -0.0000    0.0015    0.0000
  119 H13    1s        -0.0000   -0.0000   -0.0000    0.0000    0.0001   -0.0000   -0.0000   -0.0000    0.0011    0.0000
  120 O14    1s         0.0000    0.0000   -0.0000    0.0000    1.0001    0.0004    0.0000    0.0000   -0.0000   -0.0000
  121 O14    2s         0.0000   -0.0000   -0.0000    0.0000    0.0015   -0.0001   -0.0000   -0.0000    0.0000   -0.0000
  122 O14    2px        0.0000   -0.0000   -0.0000   -0.0000   -0.0002    0.0000    0.0000    0.0000    0.0000   -0.0000
  123 O14    2py        0.0000   -0.0000    0.0000    0.0000    0.0001   -0.0000    0.0000    0.0000    0.0000   -0.0000
  124 O14    2pz        0.0000    0.0000   -0.0000    0.0000    0.0012   -0.0000   -0.0000   -0.0000    0.0000   -0.0000
  125 H15    1s         0.0000    0.0000    0.0000    0.0000    0.0000   -0.0000   -0.0000   -0.0000    0.0000    0.0000
  126 H16    1s        -0.0000    0.0000   -0.0000    0.0000    0.0000   -0.0000   -0.0000   -0.0000    0.0000   -0.0000
  127 H17    1s        -0.0000    0.0000   -0.0000    0.0000    0.0000   -0.0000   -0.0000   -0.0000    0.0000    0.0000
  128 H18    1s        -0.0000    0.0000   -0.0000    0.0000   -0.0000   -0.0000    0.0000    0.0000    0.0000    0.0000
  129 H19    1s         0.0000   -0.0000    0.0000   -0.0000    0.0000   -0.0001    0.0000    0.0000    0.0000   -0.0000
 
 
      Orbital               31        32        33        34        35        36        37        38        39        40
      Energy          -15.0098  -15.0054  -15.0046  -15.0045  -14.9970  -14.9969  -12.5639  -11.2638  -11.2624  -11.2606
      Occ. No.          2.0000    2.0000    2.0000    2.0000    2.0000    2.0000    2.0000    2.0000    2.0000    2.0000
 
[...]
      5d1-     0.0000  0.0000  0.0000  0.0000  0.0000  0.0000  0.0000
      5d2-     0.0000  0.0000  0.0000  0.0000  0.0000  0.0000  0.0000
      6px      0.0000  0.0000  0.0000  0.0000  0.0000  0.0000  0.0000
      6pz      0.0000  0.0000  0.0000  0.0000  0.0000  0.0000  0.0000
      6py      0.0000  0.0000  0.0000  0.0000  0.0000  0.0000  0.0000
      7s       0.0000  0.0000  0.0000  0.0000  0.0000  0.0000  0.0000
      5f3+     0.0000  0.0000  0.0000  0.0000  0.0000  0.0000  0.0000
      5f2+     0.0000  0.0000  0.0000  0.0000  0.0000  0.0000  0.0000
      5f1+     0.0000  0.0000  0.0000  0.0000  0.0000  0.0000  0.0000
      5f0      0.0000  0.0000  0.0000  0.0000  0.0000  0.0000  0.0000
      5f1-     0.0000  0.0000  0.0000  0.0000  0.0000  0.0000  0.0000
      5f2-     0.0000  0.0000  0.0000  0.0000  0.0000  0.0000  0.0000
      5f3-     0.0000  0.0000  0.0000  0.0000  0.0000  0.0000  0.0000
      6d2+     0.0000  0.0000  0.0000  0.0000  0.0000  0.0000  0.0000
      6d1+     0.0000  0.0000  0.0000  0.0000  0.0000  0.0000  0.0000
      6d0      0.0000  0.0000  0.0000  0.0000  0.0000  0.0000  0.0000
      6d1-     0.0000  0.0000  0.0000  0.0000  0.0000  0.0000  0.0000
      6d2-     0.0000  0.0000  0.0000  0.0000  0.0000  0.0000  0.0000
      7px      0.0000  0.0000  0.0000  0.0000  0.0000  0.0000  0.0000
      7pz      0.0000  0.0000  0.0000  0.0000  0.0000  0.0000  0.0000
      7py      0.0000  0.0000  0.0000  0.0000  0.0000  0.0000  0.0000
      Total    0.7660  8.6109  0.8397  0.8481  0.8474  0.8371  0.7832
 
      N-E      0.2340 -0.6109  0.1603  0.1519  0.1526  0.1629  0.2168
 
      Total electronic charge=  191.000000
 
      Total            charge=   -1.000000
--
 
 

      Expectation values of various properties for root number:  4
      -----------------------------------------------------------
 
 
++    Molecular properties:
      ---------------------
 
      Charge (e):
                      =   -1.0000
      Dipole Moment (Debye):
      Origin of the operator (Ang)=    0.0000    0.0000    0.0000
                   X=  2.3045E+00               Y= -1.7023E+00               Z= -6.7370E-01           Total=  2.9432E+00
      Center of Charge (Ang)
                     X=   -0.47977584               Y=    0.35440452               Z=    0.14026071
      Quadrupole Moment (Debye*Ang):
      Origin of the operator (Ang)=   -0.0830    1.1599    0.4756
                  XX= -1.3460E+02              XY= -9.2073E+00              XZ=  1.9783E+00              YY= -1.3808E+02
                  YZ= -7.6820E-01              ZZ= -1.3899E+02
      In traceless form (Debye*Ang)
                  XX=  3.9375E+00              XY= -1.3811E+01              XZ=  2.9675E+00              YY= -1.2877E+00
                  YZ= -1.1523E+00              ZZ= -2.6497E+00
--
 

      Mulliken spin population analysis for root number:  4
      ---------------------------------------------------
 
 
++    Molecular charges:
      ------------------
 
      Mulliken spin population per centre and basis function type
      ---------------------------------------------------
 
                C1      C2      C3      C4      C5      C6      S7      O8      U9      O10     O11     O12   
      1s       0.0000 -0.0000 -0.0000 -0.0000  0.0000 -0.0000 -0.0000 -0.0000 -0.0000  0.0000 -0.0000 -0.0000
      2s       0.0000  0.0000  0.0000  0.0000  0.0000  0.0000  0.0000  0.0002  0.0000  0.0000  0.0004  0.0003
      2px      0.0000  0.0000  0.0000  0.0000  0.0000  0.0000 -0.0000  0.0012 -0.0000  0.0012  0.0012  0.0024
      2pz     -0.0000  0.0000  0.0000  0.0000  0.0000 -0.0000 -0.0000  0.0000 -0.0000  0.0000  0.0000  0.0001
      2py      0.0000  0.0000  0.0000  0.0000  0.0000 -0.0000  0.0000  0.0009 -0.0000  0.0005  0.0018  0.0029
      3s       0.0000  0.0000  0.0000  0.0000  0.0000  0.0000 -0.0000  0.0000  0.0000  0.0000  0.0000  0.0000
      3px      0.0000  0.0000  0.0000  0.0000  0.0000  0.0000  0.0002  0.0000 -0.0000  0.0000  0.0000  0.0000
      3pz      0.0000  0.0000  0.0000  0.0000  0.0000  0.0000  0.0000  0.0000 -0.0000  0.0000  0.0000  0.0000
      3py      0.0000  0.0000  0.0000  0.0000  0.0000  0.0000  0.0000  0.0000 -0.0000  0.0000  0.0000  0.0000
      4s       0.0000  0.0000  0.0000  0.0000  0.0000  0.0000  0.0000  0.0000 -0.0000  0.0000  0.0000  0.0000
      3d2+     0.0000  0.0000  0.0000  0.0000  0.0000  0.0000  0.0000  0.0000 -0.0000  0.0000  0.0000  0.0000
      3d1+     0.0000  0.0000  0.0000  0.0000  0.0000  0.0000  0.0000  0.0000 -0.0000  0.0000  0.0000  0.0000
      3d0      0.0000  0.0000  0.0000  0.0000  0.0000  0.0000  0.0000  0.0000  0.0000  0.0000  0.0000  0.0000
      3d1-     0.0000  0.0000  0.0000  0.0000  0.0000  0.0000  0.0000  0.0000  0.0000  0.0000  0.0000  0.0000
      3d2-     0.0000  0.0000  0.0000  0.0000  0.0000  0.0000  0.0000  0.0000  0.0000  0.0000  0.0000  0.0000
      4px      0.0000  0.0000  0.0000  0.0000  0.0000  0.0000  0.0000  0.0000 -0.0000  0.0000  0.0000  0.0000
      4pz      0.0000  0.0000  0.0000  0.0000  0.0000  0.0000  0.0000  0.0000 -0.0000  0.0000  0.0000  0.0000
      4py      0.0000  0.0000  0.0000  0.0000  0.0000  0.0000  0.0000  0.0000 -0.0000  0.0000  0.0000  0.0000
      5s       0.0000  0.0000  0.0000  0.0000  0.0000  0.0000  0.0000  0.0000 -0.0000  0.0000  0.0000  0.0000
      4d2+     0.0000  0.0000  0.0000  0.0000  0.0000  0.0000  0.0000  0.0000  0.0000  0.0000  0.0000  0.0000
      4d1+     0.0000  0.0000  0.0000  0.0000  0.0000  0.0000  0.0000  0.0000  0.0000  0.0000  0.0000  0.0000
      4d0      0.0000  0.0000  0.0000  0.0000  0.0000  0.0000  0.0000  0.0000  0.0000  0.0000  0.0000  0.0000
      4d1-     0.0000  0.0000  0.0000  0.0000  0.0000  0.0000  0.0000  0.0000 -0.0000  0.0000  0.0000  0.0000
      4d2-     0.0000  0.0000  0.0000  0.0000  0.0000  0.0000  0.0000  0.0000  0.0000  0.0000  0.0000  0.0000
      5px      0.0000  0.0000  0.0000  0.0000  0.0000  0.0000  0.0000  0.0000 -0.0000  0.0000  0.0000  0.0000
      5pz      0.0000  0.0000  0.0000  0.0000  0.0000  0.0000  0.0000  0.0000 -0.0000  0.0000  0.0000  0.0000
      5py      0.0000  0.0000  0.0000  0.0000  0.0000  0.0000  0.0000  0.0000 -0.0000  0.0000  0.0000  0.0000
      6s       0.0000  0.0000  0.0000  0.0000  0.0000  0.0000  0.0000  0.0000  0.0000  0.0000  0.0000  0.0000
      4f3+     0.0000  0.0000  0.0000  0.0000  0.0000  0.0000  0.0000  0.0000  0.0000  0.0000  0.0000  0.0000
      4f2+     0.0000  0.0000  0.0000  0.0000  0.0000  0.0000  0.0000  0.0000  0.0000  0.0000  0.0000  0.0000
      4f1+     0.0000  0.0000  0.0000  0.0000  0.0000  0.0000  0.0000  0.0000  0.0000  0.0000  0.0000  0.0000
      4f0      0.0000  0.0000  0.0000  0.0000  0.0000  0.0000  0.0000  0.0000  0.0000  0.0000  0.0000  0.0000
      4f1-     0.0000  0.0000  0.0000  0.0000  0.0000  0.0000  0.0000  0.0000  0.0000  0.0000  0.0000  0.0000
      4f2-     0.0000  0.0000  0.0000  0.0000  0.0000  0.0000  0.0000  0.0000  0.0000  0.0000  0.0000  0.0000
      4f3-     0.0000  0.0000  0.0000  0.0000  0.0000  0.0000  0.0000  0.0000  0.0000  0.0000  0.0000  0.0000
      5d2+     0.0000  0.0000  0.0000  0.0000  0.0000  0.0000  0.0000  0.0000  0.0000  0.0000  0.0000  0.0000
      5d1+     0.0000  0.0000  0.0000  0.0000  0.0000  0.0000  0.0000  0.0000  0.0000  0.0000  0.0000  0.0000
      5d0      0.0000  0.0000  0.0000  0.0000  0.0000  0.0000  0.0000  0.0000  0.0000  0.0000  0.0000  0.0000
      5d1-     0.0000  0.0000  0.0000  0.0000  0.0000  0.0000  0.0000  0.0000  0.0000  0.0000  0.0000  0.0000
      5d2-     0.0000  0.0000  0.0000  0.0000  0.0000  0.0000  0.0000  0.0000 -0.0000  0.0000  0.0000  0.0000
      6px      0.0000  0.0000  0.0000  0.0000  0.0000  0.0000  0.0000  0.0000  0.0003  0.0000  0.0000  0.0000
      6pz      0.0000  0.0000  0.0000  0.0000  0.0000  0.0000  0.0000  0.0000  0.0000  0.0000  0.0000  0.0000
      6py      0.0000  0.0000  0.0000  0.0000  0.0000  0.0000  0.0000  0.0000  0.0002  0.0000  0.0000  0.0000
      7s       0.0000  0.0000  0.0000  0.0000  0.0000  0.0000  0.0000  0.0000  0.0025  0.0000  0.0000  0.0000
      5f3+     0.0000  0.0000  0.0000  0.0000  0.0000  0.0000  0.0000  0.0000  0.7720  0.0000  0.0000  0.0000
      5f2+     0.0000  0.0000  0.0000  0.0000  0.0000  0.0000  0.0000  0.0000  0.0184  0.0000  0.0000  0.0000
      5f1+     0.0000  0.0000  0.0000  0.0000  0.0000  0.0000  0.0000  0.0000  0.0236  0.0000  0.0000  0.0000
      5f0      0.0000  0.0000  0.0000  0.0000  0.0000  0.0000  0.0000  0.0000  0.0005  0.0000  0.0000  0.0000
      5f1-     0.0000  0.0000  0.0000  0.0000  0.0000  0.0000  0.0000  0.0000  0.0107  0.0000  0.0000  0.0000
      5f2-     0.0000  0.0000  0.0000  0.0000  0.0000  0.0000  0.0000  0.0000  0.0007  0.0000  0.0000  0.0000
      5f3-     0.0000  0.0000  0.0000  0.0000  0.0000  0.0000  0.0000  0.0000  0.1375  0.0000  0.0000  0.0000
      6d2+     0.0000  0.0000  0.0000  0.0000  0.0000  0.0000  0.0000  0.0000  0.0086  0.0000  0.0000  0.0000
      6d1+     0.0000  0.0000  0.0000  0.0000  0.0000  0.0000  0.0000  0.0000 -0.0000  0.0000  0.0000  0.0000
      6d0      0.0000  0.0000  0.0000  0.0000  0.0000  0.0000  0.0000  0.0000  0.0012  0.0000  0.0000  0.0000
      6d1-     0.0000  0.0000  0.0000  0.0000  0.0000  0.0000  0.0000  0.0000  0.0000  0.0000  0.0000  0.0000
      6d2-     0.0000  0.0000  0.0000  0.0000  0.0000  0.0000  0.0000  0.0000  0.0004  0.0000  0.0000  0.0000
      7px      0.0000  0.0000  0.0000  0.0000  0.0000  0.0000  0.0000  0.0000  0.0061  0.0000  0.0000  0.0000
      7pz      0.0000  0.0000  0.0000  0.0000  0.0000  0.0000  0.0000  0.0000  0.0001  0.0000  0.0000  0.0000
      7py      0.0000  0.0000  0.0000  0.0000  0.0000  0.0000  0.0000  0.0000  0.0023  0.0000  0.0000  0.0000
      Total    0.0000  0.0000  0.0000  0.0000  0.0000  0.0000  0.0003  0.0023  0.9852  0.0018  0.0034  0.0057
 
                H13     O14     H15     H16     H17     H18     H19   
      1s      -0.0001 -0.0000  0.0000  0.0000  0.0000  0.0000 -0.0000
      2s       0.0000 -0.0000  0.0000  0.0000  0.0000  0.0000  0.0000
      2px      0.0000  0.0011  0.0000  0.0000  0.0000  0.0000  0.0000
      2pz      0.0000  0.0000  0.0000  0.0000  0.0000  0.0000  0.0000
      2py      0.0000  0.0002  0.0000  0.0000  0.0000  0.0000  0.0000
      3s       0.0000  0.0000  0.0000  0.0000  0.0000  0.0000  0.0000
      3px      0.0000  0.0000  0.0000  0.0000  0.0000  0.0000  0.0000
      3pz      0.0000  0.0000  0.0000  0.0000  0.0000  0.0000  0.0000
      3py      0.0000  0.0000  0.0000  0.0000  0.0000  0.0000  0.0000
      4s       0.0000  0.0000  0.0000  0.0000  0.0000  0.0000  0.0000
      3d2+     0.0000  0.0000  0.0000  0.0000  0.0000  0.0000  0.0000
      3d1+     0.0000  0.0000  0.0000  0.0000  0.0000  0.0000  0.0000
      3d0      0.0000  0.0000  0.0000  0.0000  0.0000  0.0000  0.0000
      3d1-     0.0000  0.0000  0.0000  0.0000  0.0000  0.0000  0.0000
      3d2-     0.0000  0.0000  0.0000  0.0000  0.0000  0.0000  0.0000
      4px      0.0000  0.0000  0.0000  0.0000  0.0000  0.0000  0.0000
      4pz      0.0000  0.0000  0.0000  0.0000  0.0000  0.0000  0.0000
      4py      0.0000  0.0000  0.0000  0.0000  0.0000  0.0000  0.0000
      5s       0.0000  0.0000  0.0000  0.0000  0.0000  0.0000  0.0000
      4d2+     0.0000  0.0000  0.0000  0.0000  0.0000  0.0000  0.0000
      4d1+     0.0000  0.0000  0.0000  0.0000  0.0000  0.0000  0.0000
      4d0      0.0000  0.0000  0.0000  0.0000  0.0000  0.0000  0.0000
      4d1-     0.0000  0.0000  0.0000  0.0000  0.0000  0.0000  0.0000
      4d2-     0.0000  0.0000  0.0000  0.0000  0.0000  0.0000  0.0000
      5px      0.0000  0.0000  0.0000  0.0000  0.0000  0.0000  0.0000
      5pz      0.0000  0.0000  0.0000  0.0000  0.0000  0.0000  0.0000
      5py      0.0000  0.0000  0.0000  0.0000  0.0000  0.0000  0.0000
      6s       0.0000  0.0000  0.0000  0.0000  0.0000  0.0000  0.0000
      4f3+     0.0000  0.0000  0.0000  0.0000  0.0000  0.0000  0.0000
      4f2+     0.0000  0.0000  0.0000  0.0000  0.0000  0.0000  0.0000
      4f1+     0.0000  0.0000  0.0000  0.0000  0.0000  0.0000  0.0000
      4f0      0.0000  0.0000  0.0000  0.0000  0.0000  0.0000  0.0000
      4f1-     0.0000  0.0000  0.0000  0.0000  0.0000  0.0000  0.0000
      4f2-     0.0000  0.0000  0.0000  0.0000  0.0000  0.0000  0.0000
      4f3-     0.0000  0.0000  0.0000  0.0000  0.0000  0.0000  0.0000
      5d2+     0.0000  0.0000  0.0000  0.0000  0.0000  0.0000  0.0000
      5d1+     0.0000  0.0000  0.0000  0.0000  0.0000  0.0000  0.0000
      5d0      0.0000  0.0000  0.0000  0.0000  0.0000  0.0000  0.0000
      5d1-     0.0000  0.0000  0.0000  0.0000  0.0000  0.0000  0.0000
      5d2-     0.0000  0.0000  0.0000  0.0000  0.0000  0.0000  0.0000
      6px      0.0000  0.0000  0.0000  0.0000  0.0000  0.0000  0.0000
      6pz      0.0000  0.0000  0.0000  0.0000  0.0000  0.0000  0.0000
      6py      0.0000  0.0000  0.0000  0.0000  0.0000  0.0000  0.0000
      7s       0.0000  0.0000  0.0000  0.0000  0.0000  0.0000  0.0000
      5f3+     0.0000  0.0000  0.0000  0.0000  0.0000  0.0000  0.0000
      5f2+     0.0000  0.0000  0.0000  0.0000  0.0000  0.0000  0.0000
      5f1+     0.0000  0.0000  0.0000  0.0000  0.0000  0.0000  0.0000
      5f0      0.0000  0.0000  0.0000  0.0000  0.0000  0.0000  0.0000
      5f1-     0.0000  0.0000  0.0000  0.0000  0.0000  0.0000  0.0000
      5f2-     0.0000  0.0000  0.0000  0.0000  0.0000  0.0000  0.0000
      5f3-     0.0000  0.0000  0.0000  0.0000  0.0000  0.0000  0.0000
      6d2+     0.0000  0.0000  0.0000  0.0000  0.0000  0.0000  0.0000
      6d1+     0.0000  0.0000  0.0000  0.0000  0.0000  0.0000  0.0000
      6d0      0.0000  0.0000  0.0000  0.0000  0.0000  0.0000  0.0000
      6d1-     0.0000  0.0000  0.0000  0.0000  0.0000  0.0000  0.0000
      6d2-     0.0000  0.0000  0.0000  0.0000  0.0000  0.0000  0.0000
      7px      0.0000  0.0000  0.0000  0.0000  0.0000  0.0000  0.0000
      7pz      0.0000  0.0000  0.0000  0.0000  0.0000  0.0000  0.0000
      7py      0.0000  0.0000  0.0000  0.0000  0.0000  0.0000  0.0000
      Total   -0.0001  0.0014  0.0000  0.0000  0.0000  0.0000 -0.0000
 
      Total electronic spin=    1.000000
--
 
 

      LoProp population analysis for root number:  4
      -----------------------------------------------
 
 
++    LoProp analysis:
      ----------------
 
 
 
  Input file to MOLDEN was generated!
 
 
++    Static properties:
      ------------------
 
 
      LoProp Charges per center
 

                   C1       C2       C3       C4       C5       C6       S7       O8       U9       O10   
      Nuclear      6.0000   6.0000   6.0000   6.0000   6.0000   6.0000  16.0000   8.0000  92.0000   8.0000
      Electronic  -6.0975  -6.1275  -6.1134  -6.1214  -6.1135  -6.1125 -15.0051  -8.8152 -89.4661  -9.0160
 
      Total       -0.0975  -0.1275  -0.1134  -0.1214  -0.1135  -0.1125   0.9949  -0.8152   2.5339  -1.0160
 

                   O11      O12      H13      O14      H15      H16      H17      H18      H19   
      Nuclear      8.0000   8.0000   1.0000   8.0000   1.0000   1.0000   1.0000   1.0000   1.0000
      Electronic  -8.8085  -8.9510  -0.7881  -9.0236  -0.8975  -0.9039  -0.9035  -0.8963  -0.8392
 
      Total       -0.8085  -0.9510   0.2119  -1.0236   0.1025   0.0961   0.0965   0.1037   0.1608
--
 
 
      Natural Bond Order analysis for root number:  4
 
++    Natural Bond Order analysis
      ---------------------------
      Based on LoProp computed density
      -------------------------------------------------------------------------------------
      Atom A       Atom B       Bond Order | Atom A       Atom B       Bond Order
        C1           C2             0.998  |   O12          H13            0.997
        C1           H19            1.000  |   C1           C6             1.815
        C2           C3             1.838  |   C2           S7             0.985
        C4           C5             1.844  |   C3           C4             1.828
        C5           C6             0.997  |   C3           H15            0.991
        O8           U9             1.996  |   C4           H16            0.992
        U9           O10            2.000  |   C5           H17            0.989
        U9           O12            1.000  |   C6           H18            0.991
        U9           O14            3.000  |   S7           O8             0.988
        S7           O11            0.993  |
      -------------------------------------------------------------------------------------
      NBO located    115.999 core electrons.
      NBO located     23.059 lone pair electrons.
      NBO located     52.489 electrons involved in   19 bonds.
      NBO analysis, and just that ONLY, did not converge to a
      proper answer, sorry. Calculation will continue as normal.
--
 
--
 
 
  Input file to MOLDEN was generated!
 
 
  Input file to MOLDEN was generated!
 
 
  Input file to MOLDEN was generated!
 
 
  Input file to MOLDEN was generated!
 
 
  Input file to MOLDEN was generated!
 
      Average orbitals are written to the RASORB file
      Natural orbitals for root   1 are written to the RASORB.1 file
      Natural orbitals for root   2 are written to the RASORB.2 file
      Natural orbitals for root   3 are written to the RASORB.3 file
      Natural orbitals for root   4 are written to the RASORB.4 file
      Spin density orbitals for root   1 are written to the SPDORB.1 file
      Spin density orbitals for root   2 are written to the SPDORB.2 file
      Spin density orbitals for root   3 are written to the SPDORB.3 file
      Spin density orbitals for root   4 are written to the SPDORB.4 file
 
 ###############################################################################
 ###############################################################################
 ###                                                                         ###
 ###                                                                         ###
 ###    RunFile label BirthCertificate                                       ###
 ###    was used       52 times                                              ###
 ###                                                                         ###
 ###                                                                         ###
 ###############################################################################
 ###############################################################################
--- Stop Module: rasscf at Tue Dec 17 20:12:46 2019 /rc=_RC_ALL_IS_WELL_ ---
*** files: UO2_C6H5SO2_OH-m1-doublet.casscf.MB.LprOrb UO2_C6H5SO2_OH-m1-doublet.casscf.MB.rasscf.molden.3 UO2_C6H5SO2_OH-m1-doublet.casscf.MB.rasscf.molden.2
           UO2_C6H5SO2_OH-m1-doublet.casscf.MB.rasscf.molden.4 UO2_C6H5SO2_OH-m1-doublet.casscf.MB.rasscf.molden UO2_C6H5SO2_OH-m1-doublet.casscf.MB.rasscf.molden.1
           UO2_C6H5SO2_OH-m1-doublet.casscf.MB.LoProp.molden UO2_C6H5SO2_OH-m1-doublet.casscf.MB.RasOrb.2 UO2_C6H5SO2_OH-m1-doublet.casscf.MB.RasOrb
           UO2_C6H5SO2_OH-m1-doublet.casscf.MB.RasOrb.1 UO2_C6H5SO2_OH-m1-doublet.casscf.MB.RasOrb.3 UO2_C6H5SO2_OH-m1-doublet.casscf.MB.RasOrb.4
           UO2_C6H5SO2_OH-m1-doublet.casscf.MB.rasscf.h5 UO2_C6H5SO2_OH-m1-doublet.casscf.MB.SpdOrb.2 UO2_C6H5SO2_OH-m1-doublet.casscf.MB.SpdOrb.4
           UO2_C6H5SO2_OH-m1-doublet.casscf.MB.SpdOrb.3 UO2_C6H5SO2_OH-m1-doublet.casscf.MB.SpdOrb.1 xmldump
    saved to directory /home/vallet/John-sulfinate/U-complexes/UO2_C6H5SO2_OH-m1/optg-freq-pbe0/SO-XMS
--- Module rasscf spent 1 minute 9 seconds ---

>>> COPY UO2_C6H5SO2_OH-m1-doublet.casscf.MB.RasOrb /home/vallet/John-sulfinate/U-complexes/UO2_C6H5SO2_OH-m1/optg-freq-pbe0/SO-XMS/UO2_C6H5SO2_OH-m1-doublet.casscf.MB.RasOrb_doublets

>>> COPY UO2_C6H5SO2_OH-m1-doublet.casscf.MB.rasscf.molden /home/vallet/John-sulfinate/U-complexes/UO2_C6H5SO2_OH-m1/optg-freq-pbe0/SO-XMS/UO2_C6H5SO2_OH-m1-doublet.casscf.MB.rasscf_doublets.molden

    Timing: Wall=174.73 User=982.47 System=29.24
