3
Energy = -548.4504212314
O    -1.2705418    0.0000000    0.2762311 
S     0.0000000    0.0000000   -0.5524622 
O     1.2705418    0.0000000    0.2762311 
