
 Primary working directories    : /state/partition2/vallet/537214.phlam-s-sakura
 Secondary working directories  : /state/partition2/vallet/537214.phlam-s-sakura
 Wavefunction directory         : /home/vallet/wfu/
 Main file repository           : /state/partition2/vallet/537214.phlam-s-sakura/

 SHA1      : 5e3d8ac6839c721e2824de82269b4736200146bd
 NAME      : 2015.1.37
 ARCHNAME  : linux/x86_64
 FC        : /opt/intel/composer_xe_2015.1.133/bin/intel64/ifort
 BLASLIB   : -Wl,-_start-group /opt/intel/mkl/lib/intel64/libmkl_intel_ilp64.a /opt/intel/mkl/lib/intel64/libmkl_intel_thread.a /opt/intel/mkl/lib/intel64/libmkl_core.a -Wl,-_end-group
 id        : lill

 Nodes      nprocs
 u-0-3.local    8

 Using customized tuning parameters: mindgm=1; mindgv=20; mindgc=4; mindgr=1; noblas=0; minvec=7
 default implementation of scratch files=sf  

  memory,1000,m;
  file, 1, C6H5.CCSD-T-CBS.int, new;
  file, 2, C6H5.CCSD-T-CBS.wfu, new;
 
 geometry={
 11
 Energy = -231.3577415319
 C     1.2196159   -0.0000000   -0.9268852
 C     1.2067832    0.0000000    0.4683333
 C     0.0000000    0.0000000    1.1553211
 C    -1.2067832    0.0000000    0.4683333
 C    -1.2196159   -0.0000000   -0.9268852
 C    -0.0000000   -0.0000001   -1.5474343
 H     2.1521362    0.0000000   -1.4781619
 H     2.1437595    0.0000000    1.0135964
 H    -0.0000000   -0.0000000    2.2383478
 H    -2.1437594    0.0000000    1.0135964
 H    -2.1521362    0.0000000   -1.4781619
 }
 
 basis={
   default,aug-cc-pVTZ;
 }
 {cfit,basis_coul=mycoul,basis_exch=myexch}
 
 charge=0;
 spin=1;
 
 hf;
 uccsd(t);
 
 ehf(1) = ENERGR(1);
 ecor_ccsdt(1) = ENERGY(1)-ENERGR(1);
 ecor_mp2(1) = EMP2(1)-ENERGR(1);
 
 basis={
   default,aug-cc-pVQZ;
 }
 {cfit,basis_coul=mycoul,basis_exch=myexch}
 
 hf;
 uccsd(t);
 ehf(2) = ENERGR(1);
 ecor_ccsdt(2) = ENERGY(1)-ENERGR(1);
 ecor_mp2(2) = EMP2(1)-ENERGR(1);
 
 extrapolate, basis=avtz:avqz, eref=ehf, ecorr=ecor_ccsdt, method_r=km, method_c=LH4;
 extrapolate, basis=avtz:avqz, eref=ehf, ecorr=ecor_mp2, method_r=km, method_c=LH4;

 Variables initialized (889), CPU time= 0.03 sec
 Commands  initialized (702), CPU time= 0.03 sec, 572 directives.
 Default parameters read. Elapsed time= 0.11 sec

 Checking input...
 Passed
1


                                         ***  PROGRAM SYSTEM MOLPRO  ***
                                       Copyright, TTI GmbH Stuttgart, 2015
                                    Version 2015.1 linked Aug 10 2018 15:00:15


 **********************************************************************************************************************************
 LABEL *                                                                                 
  64 bit mpp version                                                                     DATE: 28-Jan-19          TIME: 16:56:15  
 **********************************************************************************************************************************

 SHA1:             5e3d8ac6839c721e2824de82269b4736200146bd
 **********************************************************************************************************************************

 Variable memory set to 1000000000 words,  buffer space   230000 words



 Permanent file  1  c6h5.ccsd-t-cbs.int              assigned.  Implementation=df  
 Permanent file  2  c6h5.ccsd-t-cbs.wfu              assigned.  Implementation=df  
 


 **********************************************************************************************************************************
 DATASETS  * FILE   NREC   LENGTH (MB)   RECORD NAMES
              1       1        0.03       500   
                                          VAR  

              2       1        0.03       500   
                                          VAR  

 PROGRAMS   *        TOTAL      FILE
 CPU TIMES  *         0.23      0.01
 REAL TIME  *         0.36 SEC
 DISK USED  *         0.26 MB      
 **********************************************************************************************************************************

Geometry recognized as XYZ

 SETTING BASIS          =    AUG-CC-PVTZ
 SETTING CHARGE         =     0.00000000D+00                                  
 SETTING SPIN           =         1.00000000                                  


 Recomputing integrals since basis changed


 Using spherical harmonics

 Library entry C      S aug-cc-pVTZ          selected for orbital group  1
 Library entry C      P aug-cc-pVTZ          selected for orbital group  1
 Library entry C      D aug-cc-pVTZ          selected for orbital group  1
 Library entry C      F aug-cc-pVTZ          selected for orbital group  1
 Library entry H      S aug-cc-pVTZ          selected for orbital group  2
 Library entry H      P aug-cc-pVTZ          selected for orbital group  2
 Library entry H      D aug-cc-pVTZ          selected for orbital group  2


 PROGRAM * SEWARD (Integral evaluation for generally contracted gaussian basis sets)     Author: Roland Lindh, 1990

 Geometry written to block  1 of record 700


 Point group  C2v 



 ATOMIC COORDINATES

 NR  ATOM    CHARGE       X              Y              Z

   1  C       6.00    2.304740028    0.000000000   -1.751559177
   2  C       6.00   -2.304740028    0.000000000   -1.751559177
   3  C       6.00    2.280489740    0.000000000    0.885021672
   4  C       6.00   -2.280489740    0.000000000    0.885021672
   5  C       6.00    0.000000000    0.000000000    2.183240465
   6  C       6.00    0.000000000    0.000000000   -2.924227023
   7  H       1.00    4.066948001    0.000000000   -2.793321159
   8  H       1.00   -4.066948001    0.000000000   -2.793321159
   9  H       1.00    4.051118237    0.000000000    1.915419597
  10  H       1.00   -4.051118237    0.000000000    1.915419597
  11  H       1.00    0.000000000    0.000000000    4.229864314

 Bond lengths in Bohr (Angstrom)

 1-3  2.636692369  1-6  2.585918884  1-7  2.047106486  2-4  2.636692369  2-6  2.585918884
     ( 1.395277514)     ( 1.368409343)     ( 1.083282101)     ( 1.395277514)     ( 1.368409343)

  2- 8  2.047106486   3- 5  2.624119945   3- 9  2.048620307   4- 5  2.624119945   4-10  2.048620307
       ( 1.083282101)       ( 1.388624474)       ( 1.084083180)       ( 1.388624474)       ( 1.084083180)

  5-11  2.046623849
       ( 1.083026700)

 Bond angles

  1-3-5  120.17861499   1-3-9  119.66982757   1-6-2  126.06537932   2-4-5  120.17861499

  2- 4-10  119.66982757   3- 1- 6  116.44033996   3- 1- 7  121.11721573   3- 5- 4  120.69671076

  3- 5-11  119.65164462   4- 2- 6  116.44033996   4- 2- 8  121.11721573   4- 5-11  119.65164462

  5- 3- 9  120.15155744   5- 4-10  120.15155744   6- 1- 7  122.44244431   6- 2- 8  122.44244431

 NUCLEAR CHARGE:                   41
 NUMBER OF PRIMITIVE AOS:         537
 NUMBER OF SYMMETRY AOS:          473
 NUMBER OF CONTRACTIONS:          391   ( 141A1  + 119B1  +  73B2  +  58A2  )
 NUMBER OF CORE ORBITALS:           6   (   4A1  +   2B1  +   0B2  +   0A2  )
 NUMBER OF VALENCE ORBITALS:       29   (  13A1  +  10B1  +   4B2  +   2A2  )


 NUCLEAR REPULSION ENERGY  195.40646826


 Eigenvalues of metric

         1 0.221E-05 0.350E-05 0.519E-05 0.989E-05 0.105E-04 0.147E-04 0.290E-04 0.460E-04
         2 0.144E-05 0.277E-05 0.591E-05 0.757E-05 0.127E-04 0.164E-04 0.193E-04 0.513E-04
         3 0.137E-03 0.738E-03 0.943E-03 0.166E-02 0.238E-02 0.324E-02 0.423E-02 0.465E-02
         4 0.245E-03 0.767E-03 0.137E-02 0.159E-02 0.200E-02 0.337E-02 0.437E-02 0.670E-02


 Contracted 2-electron integrals neglected if value below      1.0D-12
 AO integral compression algorithm  1   Integral accuracy      1.0D-12

     4093.903 MB (compressed) written to integral file ( 59.6%)

     Node minimum: 462.684 MB, node maximum: 547.095 MB


 NUMBER OF SORTED TWO-ELECTRON INTEGRALS:   93582319.     BUFFER LENGTH:  32768
 NUMBER OF SEGMENTS:   3  SEGMENT LENGTH:   31995009      RECORD LENGTH: 524288

 Memory used in sort:      32.55 MW

 SORT1 READ   858269351. AND WROTE    92482804. INTEGRALS IN    266 RECORDS. CPU TIME:    41.41 SEC, REAL TIME:    51.27 SEC
 SORT2 READ   739913385. AND WROTE   749159450. INTEGRALS IN  16696 RECORDS. CPU TIME:     4.11 SEC, REAL TIME:     5.54 SEC

 Node minimum:    93582319.  Node maximum:    93726058. integrals

 OPERATOR DM      FOR CENTER  0  COORDINATES:    0.000000    0.000000    0.000000


 **********************************************************************************************************************************
 DATASETS  * FILE   NREC   LENGTH (MB)   RECORD NAMES
              1      18       21.68       500      610      700      900      950      970     1000      129      960     1100   
                                          VAR    BASINP    GEOM    SYMINP    ZMAT    AOBASIS   BASIS     P2S    ABASIS      S 
                                         1400     1410     1200     1210     1080     1600     1650     1700   
                                           T        V       H0       H01     AOSYM     SMH    MOLCAS    OPER   

              2       5        2.43       500      610      700     1000      520   
                                          VAR    BASINP    GEOM     BASIS   MCVARS    

 PROGRAMS   *        TOTAL       INT      FILE
 CPU TIMES  *        55.88     55.60      0.01
 REAL TIME  *        69.45 SEC
 DISK USED  *        12.95 GB      
 GA USED    *         0.00 MB       (max)       0.00 MB       (current)
 **********************************************************************************************************************************


 PROGRAM * RHF-SCF (OPEN SHELL)       Authors: W. Meyer, H.-J. Werner


 NUMBER OF ELECTRONS:      21+   20-
 CONVERGENCE THRESHOLDS:    1.00E-05 (Density)    1.00E-07 (Energy)
 MAX. NUMBER OF ITERATIONS:       60
 INTERPOLATION TYPE:            DIIS
 INTERPOLATION STEPS:              2 (START)      1 (STEP)
 LEVEL SHIFTS:                 -0.60 (CLOSED) -0.30 (OPEN) 



 Orbital guess generated from atomic densities. Full valence occupancy:   17  12   4   2

 Molecular orbital dump at record        2100.2

 Initial alpha occupancy:  11   7   2   1
 Initial beta  occupancy:  10   7   2   1
 Wave function symmetry:    1

 ITERATION    DDIFF          GRAD             ENERGY        2-EL.EN.            DIPOLE MOMENTS         DIIS   ORB.
    1      0.000D+00      0.000D+00      -230.05625496    544.073174    0.00000    0.00000    0.46216    0    start
    2      0.000D+00      0.376D-02      -230.10768401    541.738666    0.00000    0.00000    0.40000    1    diag,B
    3      0.492D-02      0.157D-02      -230.12244041    541.880123    0.00000    0.00000    0.33699    2    diag,B
    4      0.213D-02      0.658D-03      -230.12658267    541.846539    0.00000    0.00000    0.30718    3    diag,B
    5      0.113D-02      0.205D-03      -230.12710621    541.841469    0.00000    0.00000    0.29044    4    diag,B
    6      0.688D-03      0.718D-04      -230.12717265    541.826757    0.00000    0.00000    0.28705    5    diag,B
    7      0.213D-03      0.265D-04      -230.12718007    541.823408    0.00000    0.00000    0.28608    6    fixocc
    8      0.783D-04      0.113D-04      -230.12718153    541.821713    0.00000    0.00000    0.28672    7    diag,B
    9      0.573D-04      0.347D-05      -230.12718166    541.821042    0.00000    0.00000    0.28739    8    diag,B
   10      0.203D-04      0.109D-05      -230.12718167    541.820847    0.00000    0.00000    0.28767    9    orth
   11      0.911D-05      0.347D-06      -230.12718167    541.820799    0.00000    0.00000    0.28773    0    orth

 Final alpha occupancy:  11   7   2   1
 Final beta  occupancy:  10   7   2   1

 !RHF STATE 1.1 Energy               -230.127181671180
 Nuclear energy                       195.40646826
 One-electron energy                 -696.44404932
 Two-electron energy                  270.91039939
 Virial quotient                       -1.00098897
 !RHF STATE 1.1 Dipole moment           0.00000000     0.00000000     0.28773389
 Dipole moment /Debye                   0.00000000     0.00000000     0.73129870

 Orbital energies:

         1.1          2.1          3.1          4.1          5.1          6.1          7.1          8.1          9.1         10.1
    -11.250432   -11.243705   -11.240815   -11.235539    -1.160138    -1.008564    -0.805884    -0.699599    -0.628745    -0.537915

        11.1         12.1         13.1
     -0.437425     0.029475     0.036351

         1.2          2.2          3.2          4.2          5.2          6.2          7.2          8.2          9.2
    -11.243638   -11.240908    -1.025398    -0.833646    -0.629171    -0.598016    -0.509465     0.034165     0.048285

         1.3          2.3          3.3          4.3
     -0.513156    -0.343160     0.096997     0.104269

         1.4          2.4          3.4
     -0.345004     0.099028     0.109203

 HOMO      2.3    -0.343160 =      -9.3379eV
 LUMO     12.1     0.029475 =       0.8021eV
 LUMO-HOMO         0.372635 =      10.1399eV


 **********************************************************************************************************************************
 DATASETS  * FILE   NREC   LENGTH (MB)   RECORD NAMES
              1      18       21.72       500      610      700      900      950      970     1000      129      960     1100   
                                          VAR    BASINP    GEOM    SYMINP    ZMAT    AOBASIS   BASIS     P2S    ABASIS      S 
                                         1400     1410     1200     1210     1080     1600     1650     1700   
                                           T        V       H0       H01     AOSYM     SMH    MOLCAS    OPER   

              2       6        6.17       500      610      700     1000      520     2100   
                                          VAR    BASINP    GEOM     BASIS   MCVARS     RHF  

 PROGRAMS   *        TOTAL        HF       INT      FILE
 CPU TIMES  *        62.91      7.03     55.60      0.01
 REAL TIME  *        77.37 SEC
 DISK USED  *        13.22 GB      
 SF USED    *         0.17 MB      
 GA USED    *         0.00 MB       (max)       0.00 MB       (current)
 **********************************************************************************************************************************


 PROGRAM * CCSD (Unrestricted open-shell coupled cluster)     Authors: C. Hampel, H.-J. Werner, 1991, M. Deegan, P.J. Knowles, 1992


 Convergence thresholds:  THRVAR = 1.00D-08  THRDEN = 1.00D-06

 CCSD(T)     terms to be evaluated (factor= 1.000)


 Number of core orbitals:           6 (   4   2   0   0 )
 Number of closed-shell orbitals:  14 (   6   5   2   1 )
 Number of active  orbitals:        1 (   1   0   0   0 )
 Number of external orbitals:     370 ( 130 112  71  57 )

 Memory could be reduced to 316.88 Mwords without degradation in triples

 Number of N-1 electron functions:              29
 Number of N-2 electron functions:             406
 Number of singly external CSFs:              3221
 Number of doubly external CSFs:          10922030
 Total number of CSFs:                    10925251

 Molecular orbitals read from record     2100.2  Type=RHF/CANONICAL (state 1.1)

 Integral transformation finished. Total CPU:  17.97 sec, npass=  1  Memory used:  44.46 MW

 Starting RMP2 calculation

 ITER.      SQ.NORM     CORR.ENERGY   TOTAL ENERGY   ENERGY CHANGE        DEN1      VAR(S)    VAR(P)  DIIS     TIME
   1      1.31864006    -0.92295038  -231.05013205    -0.92295038    -0.00450243  0.26D-04  0.21D-02  1  1    21.19
   2      1.32391712    -0.92786438  -231.05504606    -0.00491401    -0.00001218  0.66D-06  0.77D-05  2  2    24.07
   3      1.32415056    -0.92797301  -231.05515468    -0.00010863    -0.00000006  0.17D-07  0.26D-07  3  3    27.20
   4      1.32415581    -0.92797375  -231.05515542    -0.00000073    -0.00000000  0.39D-09  0.18D-09  4  4    30.11

 Norm of t1 vector:      0.03989028      S-energy:    -0.00205551      T1 diagnostic:  0.00051724
 Norm of t2 vector:      0.56794769      P-energy:    -0.92591824
                                         Alpha-Beta:  -0.69153657
                                         Alpha-Alpha: -0.12318737
                                         Beta-Beta:   -0.11119430

 Spin contamination <S**2-Sz**2-Sz>     0.00144541
  Reference energy                   -230.127181671180
  RHF-RMP2 correlation energy          -0.927973748061
 !RHF-RMP2 energy                    -231.055155419241

 Starting UCCSD calculation

 ITER.      SQ.NORM     CORR.ENERGY   TOTAL ENERGY   ENERGY CHANGE        DEN1      VAR(S)    VAR(P)  DIIS     TIME
   1      1.31458779    -0.92057771  -231.04775938    -0.92057771    -0.02456341  0.38D-02  0.59D-02  1  1    55.15
   2      1.34193736    -0.94518530  -231.07236697    -0.02460759    -0.00214389  0.19D-03  0.85D-03  2  2    80.19
   3      1.35202699    -0.94929891  -231.07648058    -0.00411361    -0.00033665  0.13D-03  0.11D-03  3  3   106.20
   4      1.35756878    -0.95094725  -231.07812892    -0.00164833    -0.00006542  0.22D-04  0.24D-04  4  4   131.65
   5      1.36027749    -0.95146265  -231.07864432    -0.00051540    -0.00001492  0.94D-05  0.39D-05  5  5   158.46
   6      1.36147941    -0.95159765  -231.07877932    -0.00013500    -0.00000305  0.16D-05  0.95D-06  6  6   184.76
   7      1.36190061    -0.95163667  -231.07881834    -0.00003902    -0.00000081  0.46D-06  0.28D-06  6  1   211.62
   8      1.36204309    -0.95164848  -231.07883016    -0.00001182    -0.00000019  0.10D-06  0.67D-07  6  2   238.71
   9      1.36209911    -0.95164564  -231.07882731     0.00000284    -0.00000004  0.25D-07  0.10D-07  6  3   264.29
  10      1.36211362    -0.95164764  -231.07882931    -0.00000200    -0.00000001  0.75D-08  0.19D-08  6  4   291.50
  11      1.36211494    -0.95164573  -231.07882740     0.00000191    -0.00000000  0.22D-08  0.54D-09  6  5   318.13
  12      1.36211802    -0.95164549  -231.07882716     0.00000024    -0.00000000  0.45D-09  0.13D-09  6  6   345.29

 Norm of t1 vector:      0.12061927      S-energy:    -0.00264411      T1 diagnostic:  0.01334462
                                                                       D1 diagnostic:  0.04250152
 Norm of t2 vector:      0.58954983      P-energy:    -0.94900137
                                         Alpha-Beta:  -0.73777193
                                         Alpha-Alpha: -0.11145619
                                         Beta-Beta:   -0.09977325

 Spin contamination <S**2-Sz**2-Sz>     0.00382601

 Memory could be reduced to 332.79 Mwords without degradation in triples
 

 RESULTS
 =======

  Reference energy                   -230.127181671180
  UCCSD singles energy                 -0.002644112806
  UCCSD pair energy                    -0.949001374888
  UCCSD correlation energy             -0.951645487694
  Triples (T) contribution             -0.052559149785
  Total correlation energy             -1.004204637479
 
  RHF-UCCSD energy                   -231.078827158874
  RHF-UCCSD[T] energy                -231.132496275957
  RHF-UCCSD-T energy                 -231.130975381311
 !RHF-UCCSD(T) energy                -231.131386308659

 Program statistics:

 Available memory in ccsd:               999997950
 Min. memory needed in ccsd:              30622225
 Max. memory used in ccsd:                44412384
 Max. memory used in cckext:              35538565 (12 integral passes)
 Max. memory used in cckint:              44462426 ( 1 integral passes)



 **********************************************************************************************************************************
 DATASETS  * FILE   NREC   LENGTH (MB)   RECORD NAMES
              1      18       21.72       500      610      700      900      950      970     1000      129      960     1100   
                                          VAR    BASINP    GEOM    SYMINP    ZMAT    AOBASIS   BASIS     P2S    ABASIS      S 
                                         1400     1410     1200     1210     1080     1600     1650     1700   
                                           T        V       H0       H01     AOSYM     SMH    MOLCAS    OPER   

              2       6        6.17       500      610      700     1000      520     2100   
                                          VAR    BASINP    GEOM     BASIS   MCVARS     RHF  

 PROGRAMS   *        TOTAL  UCCSD(T)        HF       INT      FILE
 CPU TIMES  *      1030.29    967.38      7.03     55.60      0.01
 REAL TIME  *      1101.50 SEC
 DISK USED  *        24.24 GB      
 SF USED    *         5.86 GB      
 GA USED    *         0.00 MB       (max)       0.00 MB       (current)
 **********************************************************************************************************************************
 SETTING EHF(1)         =      -230.12718167  AU                              
 SETTING ECOR_CCSDT(1)  =        -1.00420464  AU                              
 SETTING ECOR_MP2(1)    =        -0.92797375  AU                              
 SETTING BASIS          =    AUG-CC-PVQZ


 Recomputing integrals since basis changed


 Using spherical harmonics

 Library entry C      S aug-cc-pVQZ          selected for orbital group  1
 Library entry C      P aug-cc-pVQZ          selected for orbital group  1
 Library entry C      D aug-cc-pVQZ          selected for orbital group  1
 Library entry C      F aug-cc-pVQZ          selected for orbital group  1
 Library entry C      G aug-cc-pVQZ          selected for orbital group  1
 Library entry H      S aug-cc-pVQZ          selected for orbital group  2
 Library entry H      P aug-cc-pVQZ          selected for orbital group  2
 Library entry H      D aug-cc-pVQZ          selected for orbital group  2
 Library entry H      F aug-cc-pVQZ          selected for orbital group  2


 PROGRAM * SEWARD (Integral evaluation for generally contracted gaussian basis sets)     Author: Roland Lindh, 1990

 Geometry written to block  1 of record 700


 Point group  C2v 



 ATOMIC COORDINATES

 NR  ATOM    CHARGE       X              Y              Z

   1  C       6.00    2.304740028    0.000000000   -1.751559177
   2  C       6.00   -2.304740028    0.000000000   -1.751559177
   3  C       6.00    2.280489740    0.000000000    0.885021672
   4  C       6.00   -2.280489740    0.000000000    0.885021672
   5  C       6.00    0.000000000    0.000000000    2.183240465
   6  C       6.00    0.000000000    0.000000000   -2.924227023
   7  H       1.00    4.066948001    0.000000000   -2.793321159
   8  H       1.00   -4.066948001    0.000000000   -2.793321159
   9  H       1.00    4.051118237    0.000000000    1.915419597
  10  H       1.00   -4.051118237    0.000000000    1.915419597
  11  H       1.00    0.000000000    0.000000000    4.229864314

 Bond lengths in Bohr (Angstrom)

 1-3  2.636692369  1-6  2.585918884  1-7  2.047106486  2-4  2.636692369  2-6  2.585918884
     ( 1.395277514)     ( 1.368409343)     ( 1.083282101)     ( 1.395277514)     ( 1.368409343)

  2- 8  2.047106486   3- 5  2.624119945   3- 9  2.048620307   4- 5  2.624119945   4-10  2.048620307
       ( 1.083282101)       ( 1.388624474)       ( 1.084083180)       ( 1.388624474)       ( 1.084083180)

  5-11  2.046623849
       ( 1.083026700)

 Bond angles

  1-3-5  120.17861499   1-3-9  119.66982757   1-6-2  126.06537932   2-4-5  120.17861499

  2- 4-10  119.66982757   3- 1- 6  116.44033996   3- 1- 7  121.11721573   3- 5- 4  120.69671076

  3- 5-11  119.65164462   4- 2- 6  116.44033996   4- 2- 8  121.11721573   4- 5-11  119.65164462

  5- 3- 9  120.15155744   5- 4-10  120.15155744   6- 1- 7  122.44244431   6- 2- 8  122.44244431

 NUCLEAR CHARGE:                   41
 NUMBER OF PRIMITIVE AOS:         993
 NUMBER OF SYMMETRY AOS:          798
 NUMBER OF CONTRACTIONS:          710   ( 241A1  + 209B1  + 141B2  + 119A2  )
 NUMBER OF CORE ORBITALS:           6   (   4A1  +   2B1  +   0B2  +   0A2  )
 NUMBER OF VALENCE ORBITALS:       29   (  13A1  +  10B1  +   4B2  +   2A2  )


 NUCLEAR REPULSION ENERGY  195.40646826


 Eigenvalues of metric

         1 0.601E-06 0.899E-06 0.157E-05 0.242E-05 0.301E-05 0.357E-05 0.381E-05 0.695E-05
         2 0.370E-06 0.155E-05 0.157E-05 0.207E-05 0.262E-05 0.346E-05 0.445E-05 0.533E-05
         3 0.442E-04 0.169E-03 0.205E-03 0.256E-03 0.298E-03 0.440E-03 0.490E-03 0.545E-03
         4 0.353E-04 0.581E-04 0.201E-03 0.264E-03 0.325E-03 0.483E-03 0.667E-03 0.890E-03


 Contracted 2-electron integrals neglected if value below      1.0D-13
 AO integral compression algorithm  1   Integral accuracy      1.0D-13

     46952.874 MB (compressed) written to integral file ( 65.4%)

     Node minimum: 4656.726 MB, node maximum: 6604.194 MB


 NUMBER OF SORTED TWO-ELECTRON INTEGRALS: 1005055345.     BUFFER LENGTH:  32768
 NUMBER OF SEGMENTS:  32  SEGMENT LENGTH:   31997176      RECORD LENGTH: 524288

 Memory used in sort:      32.55 MW

 SORT1 READ  8977343240. AND WROTE   977585734. INTEGRALS IN   2812 RECORDS. CPU TIME:   354.00 SEC, REAL TIME:   459.37 SEC
 SORT2 READ  7818908173. AND WROTE  8040838888. INTEGRALS IN 181592 RECORDS. CPU TIME:    46.58 SEC, REAL TIME:    66.68 SEC

 Node minimum:  1004878645.  Node maximum:  1005488032. integrals

 OPERATOR DM      FOR CENTER  0  COORDINATES:    0.000000    0.000000    0.000000


 **********************************************************************************************************************************
 DATASETS  * FILE   NREC   LENGTH (MB)   RECORD NAMES
              1      18       25.12       500      610      700      900      950      970     1001      129      960     1100   
                                          VAR    BASINP    GEOM    SYMINP    ZMAT    AOBASIS   BASIS     P2S    ABASIS      S 
                                         1400     1410     1200     1210     1080     1600     1650     1700   
                                           T        V       H0       H01     AOSYM     SMH    MOLCAS    OPER   

              2       7        6.83       500      610      700     1000      520     2100     1001   
                                          VAR    BASINP    GEOM     BASIS   MCVARS     RHF     BASIS   

 PROGRAMS   *        TOTAL       INT  UCCSD(T)        HF       INT      FILE
 CPU TIMES  *      1562.01    531.71    967.38      7.03     55.60      0.01
 REAL TIME  *      1763.96 SEC
 DISK USED  *       153.39 GB      
 SF USED    *         5.86 GB      
 GA USED    *         0.00 MB       (max)       0.00 MB       (current)
 **********************************************************************************************************************************


 PROGRAM * RHF-SCF (OPEN SHELL)       Authors: W. Meyer, H.-J. Werner


 NUMBER OF ELECTRONS:      21+   20-
 CONVERGENCE THRESHOLDS:    1.00E-05 (Density)    1.00E-07 (Energy)
 MAX. NUMBER OF ITERATIONS:       60
 INTERPOLATION TYPE:            DIIS
 INTERPOLATION STEPS:              2 (START)      1 (STEP)
 LEVEL SHIFTS:                 -0.60 (CLOSED) -0.30 (OPEN) 



 Molecular orbitals read from record     2100.2  Type=RHF/CANONICAL (state 1.1)
 
 Present basis size:     241 209 141 119
 Previous basis size:    141 119  73  58
 Previous occupation:     11   7   2   1
 Previous closed-shells:  10   7   2   1
 Previous core-orbitals:   4   2   0   0
 Present occupation:      11   7   2   1
 Present closed-shells:   10   7   2   1
 Present core-orbitals:    4   2   0   0
 Wavefunction symmetry:    1   Doublet 

 Orbital overlap <old|new>:  < 1.1| 1.1> = 0.999999   < 2.1| 2.1> = 0.999999   < 3.1| 3.1> = 0.999999   < 4.1| 4.1> = 0.999999
                             < 1.2| 1.2> = 0.999999   < 2.2| 2.2> = 0.999999   < 5.1| 5.1> = 0.999995   < 6.1| 6.1> = 0.999995
                             < 7.1| 7.1> = 0.999993   < 8.1| 8.1> = 0.999993   < 9.1| 9.1> = 0.999994   <10.1|10.1> = 0.999991
                             < 3.2| 3.2> = 0.999996   < 4.2| 4.2> = 0.999994   < 5.2| 5.2> = 0.999986   < 6.2| 6.2> = 0.999992
                             < 7.2| 7.2> = 0.999990   < 1.3| 1.3> = 0.999983   < 2.3| 2.3> = 0.999987   < 1.4| 1.4> = 0.999988
                             <11.1|11.1> = 0.999989

 Molecular orbital dump at record        2101.2

 ITERATION    DDIFF          GRAD             ENERGY        2-EL.EN.            DIPOLE MOMENTS         DIIS   ORB.
    1      0.000D+00      0.000D+00      -230.13759898    541.817294    0.00000    0.00000    0.28767    0    start
    2      0.000D+00      0.149D-02      -230.14005980    541.885561    0.00000    0.00000    0.28776    1    diag,B
    3      0.123D-01      0.181D-03      -230.14012572    541.877280    0.00000    0.00000    0.28754    2    diag,B
    4      0.278D-02      0.217D-04      -230.14012824    541.876917    0.00000    0.00000    0.28741    3    diag,B
    5      0.986D-03      0.476D-05      -230.14012845    541.877139    0.00000    0.00000    0.28740    4    diag,B
    6      0.317D-03      0.124D-05      -230.14012846    541.877429    0.00000    0.00000    0.28739    5    diag,B
    7      0.757D-04      0.338D-06      -230.14012847    541.877451    0.00000    0.00000    0.28739    6    diag,B
    8      0.113D-04      0.124D-06      -230.14012847    541.877473    0.00000    0.00000    0.28739    7    orth
    9      0.240D-05      0.493D-07      -230.14012847    541.877481    0.00000    0.00000    0.28739    0    orth

 Final alpha occupancy:  11   7   2   1
 Final beta  occupancy:  10   7   2   1

 !RHF STATE 1.1 Energy               -230.140128466018
 Nuclear energy                       195.40646826
 One-electron energy                 -696.48533731
 Two-electron energy                  270.93874058
 Virial quotient                       -1.00079012
 !RHF STATE 1.1 Dipole moment           0.00000000     0.00000000     0.28738764
 Dipole moment /Debye                   0.00000000     0.00000000     0.73041868

 Orbital energies:

         1.1          2.1          3.1          4.1          5.1          6.1          7.1          8.1          9.1         10.1
    -11.249446   -11.242609   -11.239667   -11.234431    -1.159769    -1.008210    -0.805706    -0.699599    -0.628737    -0.537948

        11.1         12.1         13.1
     -0.437523     0.026003     0.031744

         1.2          2.2          3.2          4.2          5.2          6.2          7.2          8.2          9.2
    -11.242541   -11.239761    -1.025048    -0.833460    -0.629159    -0.598027    -0.509525     0.029725     0.042505

         1.3          2.3          3.3          4.3
     -0.513261    -0.343209     0.081098     0.090185

         1.4          2.4          3.4
     -0.345055     0.088766     0.094562

 HOMO      2.3    -0.343209 =      -9.3392eV
 LUMO     12.1     0.026003 =       0.7076eV
 LUMO-HOMO         0.369212 =      10.0468eV


 **********************************************************************************************************************************
 DATASETS  * FILE   NREC   LENGTH (MB)   RECORD NAMES
              1      18       25.21       500      610      700      900      950      970     1001      129      960     1100   
                                          VAR    BASINP    GEOM    SYMINP    ZMAT    AOBASIS   BASIS     P2S    ABASIS      S 
                                         1400     1410     1200     1210     1080     1600     1650     1700   
                                           T        V       H0       H01     AOSYM     SMH    MOLCAS    OPER   

              2       8       13.15       500      610      700     1000      520     2100     1001     2101   
                                          VAR    BASINP    GEOM     BASIS   MCVARS     RHF     BASIS     RHF  

 PROGRAMS   *        TOTAL        HF       INT  UCCSD(T)        HF       INT      FILE
 CPU TIMES  *      1619.88     57.85    531.71    967.38      7.03     55.60      0.01
 REAL TIME  *      1834.53 SEC
 DISK USED  *       153.39 GB      
 SF USED    *         5.86 GB      
 GA USED    *         0.00 MB       (max)       0.00 MB       (current)
 **********************************************************************************************************************************


 PROGRAM * CCSD (Unrestricted open-shell coupled cluster)     Authors: C. Hampel, H.-J. Werner, 1991, M. Deegan, P.J. Knowles, 1992


 Convergence thresholds:  THRVAR = 1.00D-08  THRDEN = 1.00D-06

 CCSD(T)     terms to be evaluated (factor= 1.000)


 Number of core orbitals:           6 (   4   2   0   0 )
 Number of closed-shell orbitals:  14 (   6   5   2   1 )
 Number of active  orbitals:        1 (   1   0   0   0 )
 Number of external orbitals:     689 ( 230 202 139 118 )

 For full I/O caching in triples, increase memory by 906.84 Mwords to 1907.12 Mwords.

 Number of N-1 electron functions:              29
 Number of N-2 electron functions:             406
 Number of singly external CSFs:              5815
 Number of doubly external CSFs:          37422972
 Total number of CSFs:                    37428787

 Molecular orbitals read from record     2101.2  Type=RHF/CANONICAL (state 1.1)

 Integral transformation finished. Total CPU: 251.50 sec, npass=  1  Memory used: 223.90 MW

 Starting RMP2 calculation

 ITER.      SQ.NORM     CORR.ENERGY   TOTAL ENERGY   ENERGY CHANGE        DEN1      VAR(S)    VAR(P)  DIIS     TIME
   1      1.32352551    -0.97385211  -231.11398057    -0.97385211    -0.00450803  0.26D-04  0.21D-02  1  1   267.40
   2      1.32879030    -0.97876700  -231.11889546    -0.00491489    -0.00001237  0.67D-06  0.78D-05  2  2   275.65
   3      1.32902734    -0.97887861  -231.11900708    -0.00011162    -0.00000006  0.17D-07  0.27D-07  3  3   288.05
   4      1.32903281    -0.97887936  -231.11900783    -0.00000075    -0.00000000  0.41D-09  0.18D-09  4  4   299.75

 Norm of t1 vector:      0.03992659      S-energy:    -0.00206920      T1 diagnostic:  0.00051801
 Norm of t2 vector:      0.57222258      P-energy:    -0.97681016
                                         Alpha-Beta:  -0.73629628
                                         Alpha-Alpha: -0.12649659
                                         Beta-Beta:   -0.11401730

 Spin contamination <S**2-Sz**2-Sz>     0.00142507
  Reference energy                   -230.140128466019
  RHF-RMP2 correlation energy          -0.978879363143
 !RHF-RMP2 energy                    -231.119007829163

 Starting UCCSD calculation

 ITER.      SQ.NORM     CORR.ENERGY   TOTAL ENERGY   ENERGY CHANGE        DEN1      VAR(S)    VAR(P)  DIIS     TIME
   1      1.31480980    -0.96060560  -231.10073407    -0.96060560    -0.02475794  0.42D-02  0.56D-02  1  1   510.00
   2      1.34095193    -0.98469218  -231.12482064    -0.02408658    -0.00235127  0.21D-03  0.90D-03  2  2   700.34
   3      1.35158357    -0.98929836  -231.12942683    -0.00460619    -0.00033998  0.13D-03  0.11D-03  3  3   883.47
   4      1.35705715    -0.99098174  -231.13111021    -0.00168338    -0.00006922  0.23D-04  0.25D-04  4  4  1062.17
   5      1.35983222    -0.99151550  -231.13164396    -0.00053376    -0.00001551  0.99D-05  0.39D-05  5  5  1249.19
   6      1.36106223    -0.99165673  -231.13178519    -0.00014123    -0.00000320  0.18D-05  0.96D-06  6  6  1437.11
   7      1.36150562    -0.99169682  -231.13182529    -0.00004010    -0.00000083  0.49D-06  0.27D-06  6  1  1604.32
   8      1.36164660    -0.99171028  -231.13183874    -0.00001345    -0.00000021  0.12D-06  0.71D-07  6  2  1777.90
   9      1.36170715    -0.99170828  -231.13183674     0.00000200    -0.00000004  0.28D-07  0.10D-07  6  3  1968.92
  10      1.36172280    -0.99171090  -231.13183937    -0.00000263    -0.00000001  0.84D-08  0.19D-08  6  4  2151.08
  11      1.36172364    -0.99170877  -231.13183723     0.00000213    -0.00000000  0.25D-08  0.59D-09  6  5  2317.28
  12      1.36172485    -0.99170853  -231.13183700     0.00000023    -0.00000000  0.56D-09  0.17D-09  6  1  2520.14

 Norm of t1 vector:      0.12155334      S-energy:    -0.00263223      T1 diagnostic:  0.01355094
                                                                       D1 diagnostic:  0.04219020
 Norm of t2 vector:      0.58902430      P-energy:    -0.98907630
                                         Alpha-Beta:  -0.77274689
                                         Alpha-Alpha: -0.11422388
                                         Beta-Beta:   -0.10210554

 Spin contamination <S**2-Sz**2-Sz>     0.00380190

 For full I/O caching in triples, increase memory by 943.38 Mwords to 1943.66 Mwords.
 

 RESULTS
 =======

  Reference energy                   -230.140128466019
  UCCSD singles energy                 -0.002632231220
  UCCSD pair energy                    -0.989076302270
  UCCSD correlation energy             -0.991708533489
  Triples (T) contribution             -0.055683766707
  Total correlation energy             -1.047392300197
 
  RHF-UCCSD energy                   -231.131836999509
  RHF-UCCSD[T] energy                -231.188711635730
  RHF-UCCSD-T energy                 -231.187121831613
 !RHF-UCCSD(T) energy                -231.187520766216

 Program statistics:

 Available memory in ccsd:               999997950
 Min. memory needed in ccsd:             104283923
 Max. memory used in ccsd:               151645553
 Max. memory used in cckext:             121431101 (12 integral passes)
 Max. memory used in cckint:             223899333 ( 1 integral passes)



 **********************************************************************************************************************************
 DATASETS  * FILE   NREC   LENGTH (MB)   RECORD NAMES
              1      18       25.21       500      610      700      900      950      970     1001      129      960     1100   
                                          VAR    BASINP    GEOM    SYMINP    ZMAT    AOBASIS   BASIS     P2S    ABASIS      S 
                                         1400     1410     1200     1210     1080     1600     1650     1700   
                                           T        V       H0       H01     AOSYM     SMH    MOLCAS    OPER   

              2       8       13.15       500      610      700     1000      520     2100     1001     2101   
                                          VAR    BASINP    GEOM     BASIS   MCVARS     RHF     BASIS     RHF  

 PROGRAMS   *        TOTAL  UCCSD(T)        HF       INT  UCCSD(T)        HF       INT      FILE
 CPU TIMES  *     10414.09   8794.20     57.85    531.71    967.38      7.03     55.60      0.01
 REAL TIME  *     11007.34 SEC
 DISK USED  *       180.30 GB      
 SF USED    *        33.82 GB      
 GA USED    *         0.00 MB       (max)       0.00 MB       (current)
 **********************************************************************************************************************************
 SETTING EHF(2)         =      -230.14012847  AU                              
 SETTING ECOR_CCSDT(2)  =        -1.04739230  AU                              
 SETTING ECOR_MP2(2)    =        -0.97887936  AU                              

 
 Extrapolating energy using  ECORR and basissets AVTZ AVQZ

 *** Long output written to logfile /home/vallet/John-methylsulfonyl/Units/C6H5/optg-freq-pbe0/CCSD-T/C6H5.CCSD-T-CBS.log ***


 Extrapolating reference energy using E(n)=ECBS+A*(l+1)*exp(-9*sqrt(l))

 E(CBS)=  -230.14176297  A= 0.214643D+05

 Extrapolating correlation energy using function (n+ 0.5)^{-X} with X= 4.0
 
 L=3  E=    -1.00420464  EFIT=    -1.00420464
 L=4  E=    -1.04739230  EFIT=    -1.04739230

 E(CBS)=    -1.07231864  Coefficients:   10.2214

 BASIS           EREF            ECORR           ETOT
 AVTZ       -230.12718167     -1.00420464   -231.13138631
 AVQZ       -230.14012847     -1.04739230   -231.18752077
 CBS        -230.14176297     -1.07231864   -231.21408161
 


 **********************************************************************************************************************************
 DATASETS  * FILE   NREC   LENGTH (MB)   RECORD NAMES
              1      18       25.21       500      610      700      900      950      970     1001      129      960     1100   
                                          VAR    BASINP    GEOM    SYMINP    ZMAT    AOBASIS   BASIS     P2S    ABASIS      S 
                                         1400     1410     1200     1210     1080     1600     1650     1700   
                                           T        V       H0       H01     AOSYM     SMH    MOLCAS    OPER   

              2       8       13.15       500      610      700     1000      520     2100     1001     2101   
                                          VAR    BASINP    GEOM     BASIS   MCVARS     RHF     BASIS     RHF  

 PROGRAMS   *        TOTAL  EXTRAPOL  UCCSD(T)        HF       INT  UCCSD(T)        HF       INT      FILE
 CPU TIMES  *     10414.10      0.00   8794.20     57.85    531.71    967.38      7.03     55.60      0.01
 REAL TIME  *     11007.35 SEC
 DISK USED  *       180.30 GB      
 SF USED    *        33.82 GB      
 GA USED    *         0.00 MB       (max)       0.00 MB       (current)
 **********************************************************************************************************************************

 
 Extrapolating energy using  ECORR and basissets AVTZ AVQZ

 Extrapolating reference energy using E(n)=ECBS+A*(l+1)*exp(-9*sqrt(l))

 E(CBS)=  -230.14176297  A= 0.214643D+05

 Extrapolating correlation energy using function (n+ 0.5)^{-X} with X= 4.0
 
 L=3  E=    -0.92797375  EFIT=    -0.92797375
 L=4  E=    -0.97887936  EFIT=    -0.97887936

 E(CBS)=    -1.00826022  Coefficients:   12.0480

 BASIS           EREF            ECORR           ETOT
 AVTZ       -230.12718167     -0.92797375   -231.05515542
 AVQZ       -230.14012847     -0.97887936   -231.11900783
 CBS        -230.14176297     -1.00826022   -231.15002320
 


 **********************************************************************************************************************************
 DATASETS  * FILE   NREC   LENGTH (MB)   RECORD NAMES
              1      18       25.21       500      610      700      900      950      970     1001      129      960     1100   
                                          VAR    BASINP    GEOM    SYMINP    ZMAT    AOBASIS   BASIS     P2S    ABASIS      S 
                                         1400     1410     1200     1210     1080     1600     1650     1700   
                                           T        V       H0       H01     AOSYM     SMH    MOLCAS    OPER   

              2       8       13.15       500      610      700     1000      520     2100     1001     2101   
                                          VAR    BASINP    GEOM     BASIS   MCVARS     RHF     BASIS     RHF  

 PROGRAMS   *        TOTAL  EXTRAPOLEXTRAPOLAT  UCCSD(T)        HF       INT  UCCSD(T)        HF       INT      FILE
 CPU TIMES  *     10414.10      0.00      0.00   8794.20     57.85    531.71    967.38      7.03     55.60      0.01
 REAL TIME  *     11007.36 SEC
 DISK USED  *       180.30 GB      
 SF USED    *        33.82 GB      
 GA USED    *         0.00 MB       (max)       0.00 MB       (current)
 **********************************************************************************************************************************

 UCCSD(T)/aug-cc-pVTZ:aug-cc-pVQZ energy=   -231.150023196442

        UCCSD(T)        HF-SCF          UCCSD(T)        HF-SCF  
   -231.18752077   -230.14012847   -231.13138631   -230.12718167
 **********************************************************************************************************************************
 Molpro calculation terminated
 Variable memory released
