   This run of MOLCAS is using the pymolcas driver

                             OPE
                             OPE          NMOL  CASOP  ENMOLC A   SO
                 OPE        NMOLC        AS  OP EN  MO LC     AS  OP
                OPENM       OL CA        SO  PE NM  OL CA     SOP EN
                OP EN      MO   LC       AS  OP ENMOL  CASO   PENMOL
                OP  EN     MO   LC       AS  OP EN     MO     LC ASO
               OP   E  NMOL  C  AS       OP  EN MO     LC     AS  OP
               OP  E   NMO   LC AS        OPEN  MO     LCASOP EN   M
               O  PEN   MO  LCA  SO
            OPE   NMO   L   CAS    OP
        OPENMOL  CASOP     ENMOL   CASOPE
     OPENMOLCA   SOPENMOLCASOPEN   MOLCASOPE
    OPENMOLCAS   OP           EN   MOL    CAS
    OPENMOLCAS       OP  ENM        O     LCA
    OPENMOLCAS    OPEN  MOLCASO     P  E  NMO
    OPENMOLCAS     OP               E  N  MOL
    OPENMOLCA   SO           PENM   O  L  CAS    OPEN    MO    LCAS
    OPENMOLCA   SOP           ENM   O  L  CAS   OP  EN  MOLC  AS   O
    OPENMOLCA   SOPE           NM      O  LCA   S      OP  EN MO
    OPENMOLC                AS         O  PEN   M      OL  CA  SOPE
    OPENMO        LCASOPE  NMOL        C  ASO   P      ENMOLC     AS
    OPE     NMO      LCA  SO     P     E   NM   OL  CA SO  PE N   MO
          OPENMOLCA            SOPE   NMO        LCAS  O    P  ENMO
     OPENMOLCASOPENMOLCASOPENMOLCASOPENMOLCA
        OPENMOLCASOPENMOLCASOPENMOLCASOPE
            OPENMOLCASOPENMOLCASOPENM
               OPENMOLCASOPENMOLCA        version: 18.09
                   OPENMOLCASO
                       OPE                tag: 50-g6d6e5e5-dirty

 OpenMolcas is free software; you can redistribute it and/or modify it
 under the terms of the GNU Lesser General Public License version 2.1.
 OpenMolcas is distributed in the hope that it will be useful, but it
 is provided "as is" and without any express or implied warranties.
 For more details see the full text of the license in the file
 LICENSE or in <http://www.gnu.org/licenses/>.

                 Copyright (C) The OpenMolcas Authors
           For the author list and the recommended citation,
                   consult the file CONTRIBUTORS.md

           *************************************************
           * pymolcas version py2.04                       *
           *   build 3b3f1139d1f9af0cd96dc01c0ce9d5c0      *
           *   (after the EMIL interpreter by V. Veryazov) *
           *************************************************

configuration info
------------------
C Compiler ID: Intel
C flags: -std=gnu99 -qopenmp
Fortran Compiler ID: Intel
Fortran flags: -fpp -i8 -r8 -heap-arrays -qopenmp
Definitions: _MOLCAS_;_I8_;_LINUX_;_MKL_;_FDE_
Parallel: OFF (GA=OFF)


   -------------------------------------------------------------------------------------------------------------------------------
  |
  |           Project: PuO2_CH3SO2_CH3SO2-m1-quartet.rassi-SO-casscf-xmscaspt2.VTZP
  |    Submitted from: /home/vallet/John-methylsulfonyl/PuO2_CH3SO2_CH3SO2-m1/optg-freq-pbe0/SO-XMS
  |      Scratch area: /state/partition2/vallet/499154.phlam-s-sakura/PuO2_CH3SO2_CH3SO2-m1-quartet.rassi-SO-casscf-xmscaspt2.VTZP
  |   Save outputs to: /home/vallet/John-methylsulfonyl/PuO2_CH3SO2_CH3SO2-m1/optg-freq-pbe0/SO-XMS
  |            Molcas: /home/pcmt/OpenMolcas/OpenMolcas-20181005
  |
  | Scratch area is empty
  |
  |    MOLCAS_DRIVER = /home/pcmt/OpenMolcas/OpenMolcas-20181005/sbin/pymolcas
  |   MOLCAS_LICENSE = /home/pcmt/molcas/license
  |    MOLCAS_MOLDEN = ON
  |    MOLCAS_NPROCS = 1
  |    MOLCAS_SOURCE = /home/pcmt/OpenMolcas/OpenMolcas-20181005
  | MOLCAS_STRUCTURE = 0
  |
   -------------------------------------------------------------------------------------------------------------------------------

++ ---------   Input file   ---------

&GATEWAY
   COORD=$HomeDir/PuO2_CH3SO2_CH3SO2-m1-quartet.pbe0.optg-zaxis.xyz
   BASIS=ANO-RCC-VTZP
   Group=Nosym
   ANGM=0.0 0.0 0.0
   RICD

&SEWARD

>>> COPY $HomeDir/PuO2_CH3SO2_CH3SO2-m1-quartet.casscf.MB.RunFile RUNFIL1

>>> COPY $Project.RunFile RUNFIL2

>>> COPY $HomeDir/PuO2_CH3SO2_CH3SO2-m1-quartet.casscf.MB.RasOrb_quartets INPORB

&EXPBAS

>>> COPY $Project.ExpOrb $HomeDir/$Project.ExpOrb_quartets

>>> COPY $HomeDir/PuO2_CH3SO2_CH3SO2-m1-quartet.casscf.MB.RasOrb_doublets INPORB

&EXPBAS

>>> COPY $Project.ExpOrb $HomeDir/$Project.ExpOrb_doublets

>>> COPY $HomeDir/$Project.ExpOrb_quartets INPORB

&RASSCF
   Spin=4
   Symmetry=1
   Nactel=3 0 0
   Inactive=95
   Ras2=4
   CIRoots=4 4 1
   Lumorb

>>> COPY $Project.JobIph $Project.JobIph_quartets

>>> COPY $Project.RasOrb $Project.RasOrb_quartets

&CASPT2
    IPEA=0.0
    XMUL= ALL
    THRESHOLDS= 1.0D-09 1.0D-07
    MAXITER=150
    CONVERGENCE=1.0D-6
    IMAG=0.1

>>> COPY $Project.JobMix $Project.JobMix_quartets

>>> COPY $HomeDir/$Project.ExpOrb_doublets INPORB

&RASSCF
   Spin=2
   Symmetry=1
   Nactel=3 0 0
   Inactive=95
   Ras2=4
   CIRoots=20 20 1
   Lumorb

>>> COPY $Project.JobIph $Project.JobIph_doublets

&CASPT2
    IPEA=0.0
    XMUL= ALL
    THRESHOLDS= 1.0D-09 1.0D-07
    MAXITER=150
    CONVERGENCE=1.0D-6
    IMAG=0.1

>>> COPY $Project.JobMix $Project.JobMix_doublets

>>> COPY $Project.JobIph_quartets JOB001

>>> COPY $Project.JobIph_doublets JOB002

&RASSI
    EJob
    SPINorbit

>>> COPY $Project.JobMix_quartets JOB001

>>> COPY $Project.JobMix_doublets JOB002

&RASSI
    EJob
    SPINorbit

-- ----------------------------------

--- Start Module: gateway at Sat Nov 17 17:33:37 2018 ---
 
()()()()()()()()()()()()()()()()()()()()()()()()()()()()()()()()()()()()()()()()()()()()()()()()()()

                                              &GATEWAY

                                   only a single process is used
                       available to each process: 32 GB of memory, 8 threads
()()()()()()()()()()()()()()()()()()()()()()()()()()()()()()()()()()()()()()()()()()()()()()()()()()
 
 
++    Symmetry information:
      ---------------------
 
                    Character Table for C1 
 
                             E  
                    a        1  x, y, xy, Rz, z, xz, Ry, yz, Rx, I
--
 
 
++    Basis set information:
      ----------------------
 
 
      Basis set label: C.ANO-RCC...4S3P2D1F.
 
      Electronic valence basis set:
      ------------------
      Associated Effective Charge   6.000000 au
      Associated Actual Charge      6.000000 au
      Nuclear Model: Point charge
 
      Shell  nPrim  nBasis  Cartesian Spherical Contaminant
         s      14       4        X                  
         p       9       3        X                  
         d       4       2                 X         
         f       3       1                 X         
 
 
      Basis set label: S.ANO-RCC...5S4P2D1F.
 
      Electronic valence basis set:
      ------------------
      Associated Effective Charge  16.000000 au
      Associated Actual Charge     16.000000 au
      Nuclear Model: Point charge
 
      Shell  nPrim  nBasis  Cartesian Spherical Contaminant
         s      17       5        X                  
         p      12       4        X                  
         d       5       2                 X         
         f       4       1                 X         
 
 
      Basis set label: O.ANO-RCC...4S3P2D1F.
 
      Electronic valence basis set:
      ------------------
      Associated Effective Charge   8.000000 au
      Associated Actual Charge      8.000000 au
      Nuclear Model: Point charge
 
      Shell  nPrim  nBasis  Cartesian Spherical Contaminant
         s      14       4        X                  
         p       9       3        X                  
         d       4       2                 X         
         f       3       1                 X         
 
 
      Basis set label: PU.ANO-RCC...9S8P6D4F2G1H.
 
      Electronic valence basis set:
      ------------------
      Associated Effective Charge  94.000000 au
      Associated Actual Charge     94.000000 au
      Nuclear Model: Point charge
 
      Shell  nPrim  nBasis  Cartesian Spherical Contaminant
         s      26       9        X                  
         p      23       8        X                  
         d      17       6                 X         
         f      13       4                 X         
         g       5       2                 X         
         h       3       1                 X         
 
 
      Basis set label: O.ANO-RCC...4S3P2D1F.
 
      Electronic valence basis set:
      ------------------
      Associated Effective Charge   8.000000 au
      Associated Actual Charge      8.000000 au
      Nuclear Model: Point charge
 
      Shell  nPrim  nBasis  Cartesian Spherical Contaminant
         s      14       4        X                  
         p       9       3        X                  
         d       4       2                 X         
         f       3       1                 X         
 
 
      Basis set label: S.ANO-RCC...5S4P2D1F.
 
      Electronic valence basis set:
      ------------------
      Associated Effective Charge  16.000000 au
      Associated Actual Charge     16.000000 au
      Nuclear Model: Point charge
 
      Shell  nPrim  nBasis  Cartesian Spherical Contaminant
         s      17       5        X                  
         p      12       4        X                  
         d       5       2                 X         
         f       4       1                 X         
 
 
      Basis set label: C.ANO-RCC...4S3P2D1F.
 
      Electronic valence basis set:
      ------------------
      Associated Effective Charge   6.000000 au
      Associated Actual Charge      6.000000 au
      Nuclear Model: Point charge
 
      Shell  nPrim  nBasis  Cartesian Spherical Contaminant
         s      14       4        X                  
         p       9       3        X                  
         d       4       2                 X         
         f       3       1                 X         
 
 
      Basis set label: O.ANO-RCC...4S3P2D1F.
 
      Electronic valence basis set:
      ------------------
      Associated Effective Charge   8.000000 au
      Associated Actual Charge      8.000000 au
      Nuclear Model: Point charge
 
      Shell  nPrim  nBasis  Cartesian Spherical Contaminant
         s      14       4        X                  
         p       9       3        X                  
         d       4       2                 X         
         f       3       1                 X         
 
 
      Basis set label: H.ANO-RCC...3S2P1D.
 
      Electronic valence basis set:
      ------------------
      Associated Effective Charge   1.000000 au
      Associated Actual Charge      1.000000 au
      Nuclear Model: Point charge
 
      Shell  nPrim  nBasis  Cartesian Spherical Contaminant
         s       8       3        X                  
         p       4       2        X                  
         d       3       1                 X         
--
 
 
++    Molecular structure info:
      -------------------------
 
                    ************************************************ 
                    **** Cartesian Coordinates / Bohr, Angstrom **** 
                    ************************************************ 
 
     Center  Label                x              y              z                     x              y              z
        1      C1               0.009392       6.513357      -3.704203              0.004970       3.446720      -1.960180
        2      S2               0.012434       5.856148      -0.334576              0.006580       3.098940      -0.177050
        3      O3               2.333207       4.144528      -0.082090              1.234680       2.193190      -0.043440
        4      O4              -2.315292       4.154827      -0.076458             -1.225200       2.198640      -0.040460
        5      PU5              0.000000       0.000000       0.000000              0.000000       0.000000       0.000000
        6      O6              -0.001247       0.000000      -3.324274             -0.000660       0.000000      -1.759130
        7      O7              -2.328275      -4.148327       0.080880             -1.232070      -2.195200       0.042800
        8      S8              -0.004932      -5.856148       0.334841             -0.002610      -3.098940       0.177190
        9      C9              -0.002665      -6.513054       3.704525             -0.001410      -3.446560       1.960350
       10      O10              0.000000       0.000000       3.324274              0.000000       0.000000       1.759130
       11      O11              2.320244      -4.151067       0.077913              1.227820      -2.196650       0.041230
       12      H12              1.696388      -7.589594       4.153032              0.897690      -4.016240       2.197690
       13      H13             -0.007540      -4.686521       4.659271             -0.003990      -2.480000       2.465580
       14      H14             -1.695179      -7.599420       4.154128             -0.897050      -4.021440       2.198270
       15      H15              1.707972       7.589254      -4.155980              0.903820       4.016060      -2.199250
       16      H16              0.001833       4.686899      -4.659082              0.000970       2.480200      -2.465480
       17      H17             -1.683576       7.600403      -4.150368             -0.890910       4.021960      -2.196280
 
                    ************************************************* 
                    **** InterNuclear Distances / Bohr, Angstrom **** 
                    ************************************************* 
 
     Atom centers         Bohr        Angstrom
   12 H12       9 C9      2.060784        1.090520
   15 H15       1 C1    
   17 H17       1 C1    
   14 H14       9 C9      2.060810        1.090534
   13 H13       9 C9      2.061017        1.090643
   16 H16       1 C1    
    8 S8        7 O7      2.894662        1.531789
    3 O3        2 S2      2.894715        1.531817
    4 O4        2 S2    
   11 O11       8 S8      2.894781        1.531852
    6 O6        5 PU5     3.324274        1.759130
   10 O10       5 PU5   
   14 H14      12 H12     3.391571        1.794742
   17 H17      15 H15   
   13 H13      12 H12     3.404039        1.801340
   16 H16      15 H15     3.404069        1.801356
   17 H17      16 H16     3.404100        1.801372
   14 H14      13 H13     3.404156        1.801402
    2 S2        1 C1      3.433118        1.816728
    9 C9        8 S8    
   16 H16       2 S2      4.479800        2.370608
   13 H13       8 S8      4.479814        2.370615
   12 H12       8 S8      4.525253        2.394661
   17 H17       2 S2      4.525389        2.394733
   15 H15       2 S2      4.525664        2.394878
   14 H14       8 S8      4.525803        2.394952
    4 O4        3 O3      4.648514        2.459888
   11 O11       7 O7    
   11 O11       5 PU5     4.756149        2.516846
    5 PU5       3 O3      4.756859        2.517222
    5 PU5       4 O4      4.756997        2.517294
    7 O7        5 PU5     4.757733        2.517684
   13 H13      10 O10     4.872961        2.578660
   16 H16       6 O6      4.873268        2.578822
   11 O11       9 C9      4.911944        2.599289
    4 O4        1 C1      4.911960        2.599297
    3 O3        1 C1      4.912349        2.599503
    9 C9        7 O7    
   13 H13       7 O7      5.161117        2.731145
   16 H16       4 O4      5.162617        2.731939
   16 H16       3 O3      5.165107        2.733257
   13 H13      11 O11     5.166636        2.734066
   12 H12      11 O11     5.368357        2.840812
   15 H15       3 O3      5.371558        2.842506
   17 H17       4 O4      5.372876        2.843203
   14 H14       7 O7      5.376077        2.844898
--
 
 
            Nuclear Potential Energy           2539.26188288 au
 
--- Stop Module: gateway at Sat Nov 17 17:35:16 2018 /rc=_RC_ALL_IS_WELL_ ---
*** files: PuO2_CH3SO2_CH3SO2-m1-quartet.rassi-SO-casscf-xmscaspt2.VTZP.RICDLib xmldump
    saved to directory /home/vallet/John-methylsulfonyl/PuO2_CH3SO2_CH3SO2-m1/optg-freq-pbe0/SO-XMS
--- Module gateway spent 1 minute 39 seconds ---

--- Start Module: seward at Sat Nov 17 17:35:16 2018 ---
 
()()()()()()()()()()()()()()()()()()()()()()()()()()()()()()()()()()()()()()()()()()()()()()()()()()

                                              &SEWARD

                                   only a single process is used
                       available to each process: 32 GB of memory, 8 threads
()()()()()()()()()()()()()()()()()()()()()()()()()()()()()()()()()()()()()()()()()()()()()()()()()()
 
               SEWARD will generate:
                  Multipole Moment integrals up to order  2
                  Kinetic Energy integrals
                  Nuclear Attraction integrals (point charge)
                  One-Electron Hamiltonian integrals
                  Velocity integrals
                  Relativistic Douglas-Kroll-Hess integrals:
                    - Parametrization         : EXP
                    - DKH order of Hamiltonian: 2
                    - DKH order of Properties : 0
                         - multipole moment operators
                         - electric potential operators
                         - contact operators
                  Orbital angular momentum around ( 0.0000  0.0000  0.0000 )
                  Atomic mean-field integrals
                  RI decomposed two-electron repulsion integrals stored Cholesky style
                   - acCD auxiliary basis
                   - CD Threshold:   0.10E-03
 
                   Integrals are discarded if absolute value <: 0.10E-13
                   Integral cutoff threshold is set to       <: 0.10E-15
 
            Nuclear Potential Energy           2539.26188288 au
 
 
      Basis set specifications :
      Symmetry species         a  
      Basis functions          512
 
 
 Post_2Center_RI
 Detected lin. dependences in the auxiliary basis.
 # of AuxBas before l. d. removal:   4720
 # of AuxBas after  l. d. removal:   4702
 
 Sorry, Molden does not know how to handle
 functions with angular momentum larger than g
--- Stop Module: seward at Sat Nov 17 17:43:39 2018 /rc=_RC_ALL_IS_WELL_ ---
*** files: PuO2_CH3SO2_CH3SO2-m1-quartet.rassi-SO-casscf-xmscaspt2.VTZP.GssOrb PuO2_CH3SO2_CH3SO2-m1-quartet.rassi-SO-casscf-xmscaspt2.VTZP.guessorb.h5 xmldump
    saved to directory /home/vallet/John-methylsulfonyl/PuO2_CH3SO2_CH3SO2-m1/optg-freq-pbe0/SO-XMS
--- Module seward spent 8 minutes 22 seconds ---

>>> COPY /home/vallet/John-methylsulfonyl/PuO2_CH3SO2_CH3SO2-m1/optg-freq-pbe0/SO-XMS/PuO2_CH3SO2_CH3SO2-m1-quartet.casscf.MB.RunFile RUNFIL1

>>> COPY PuO2_CH3SO2_CH3SO2-m1-quartet.rassi-SO-casscf-xmscaspt2.VTZP.RunFile RUNFIL2

>>> COPY /home/vallet/John-methylsulfonyl/PuO2_CH3SO2_CH3SO2-m1/optg-freq-pbe0/SO-XMS/PuO2_CH3SO2_CH3SO2-m1-quartet.casscf.MB.RasOrb_quartets INPORB

--- Start Module: expbas at Sat Nov 17 17:43:41 2018 ---
 
()()()()()()()()()()()()()()()()()()()()()()()()()()()()()()()()()()()()()()()()()()()()()()()()()()

                                              &EXPBAS

                                   only a single process is used
                       available to each process: 32 GB of memory, 8 threads
()()()()()()()()()()()()()()()()()()()()()()()()()()()()()()()()()()()()()()()()()()()()()()()()()()
 

 Header on input orbitals file:
* RASSCF average (pseudo-natural) orbitals

 Information from input runfile
           Number of symmetries    1
      Number of basis functions  123

 Information from expanded basis set runfile
           Number of symmetries    1
      Number of basis functions  512
 New orbitals have been built in file EXPORB
--- Stop Module: expbas at Sat Nov 17 17:43:41 2018 /rc=_RC_ALL_IS_WELL_ ---
*** files: PuO2_CH3SO2_CH3SO2-m1-quartet.rassi-SO-casscf-xmscaspt2.VTZP.ExpOrb xmldump
    saved to directory /home/vallet/John-methylsulfonyl/PuO2_CH3SO2_CH3SO2-m1/optg-freq-pbe0/SO-XMS

>>> COPY PuO2_CH3SO2_CH3SO2-m1-quartet.rassi-SO-casscf-xmscaspt2.VTZP.ExpOrb /home/vallet/John-methylsulfonyl/PuO2_CH3SO2_CH3SO2-m1/optg-freq-pbe0/SO-XMS/PuO2_CH3SO2_CH3SO2-m1-quartet.rassi-SO-casscf-xmscaspt2.VTZP.ExpOrb_quartets

>>> COPY /home/vallet/John-methylsulfonyl/PuO2_CH3SO2_CH3SO2-m1/optg-freq-pbe0/SO-XMS/PuO2_CH3SO2_CH3SO2-m1-quartet.casscf.MB.RasOrb_doublets INPORB

--- Start Module: expbas at Sat Nov 17 17:43:41 2018 ---
 
()()()()()()()()()()()()()()()()()()()()()()()()()()()()()()()()()()()()()()()()()()()()()()()()()()

                                              &EXPBAS

                                   only a single process is used
                       available to each process: 32 GB of memory, 8 threads
()()()()()()()()()()()()()()()()()()()()()()()()()()()()()()()()()()()()()()()()()()()()()()()()()()
 

 Header on input orbitals file:
* RASSCF average (pseudo-natural) orbitals

 Information from input runfile
           Number of symmetries    1
      Number of basis functions  123

 Information from expanded basis set runfile
           Number of symmetries    1
      Number of basis functions  512
 New orbitals have been built in file EXPORB
--- Stop Module: expbas at Sat Nov 17 17:43:42 2018 /rc=_RC_ALL_IS_WELL_ ---
*** files: PuO2_CH3SO2_CH3SO2-m1-quartet.rassi-SO-casscf-xmscaspt2.VTZP.ExpOrb xmldump
    saved to directory /home/vallet/John-methylsulfonyl/PuO2_CH3SO2_CH3SO2-m1/optg-freq-pbe0/SO-XMS

>>> COPY PuO2_CH3SO2_CH3SO2-m1-quartet.rassi-SO-casscf-xmscaspt2.VTZP.ExpOrb /home/vallet/John-methylsulfonyl/PuO2_CH3SO2_CH3SO2-m1/optg-freq-pbe0/SO-XMS/PuO2_CH3SO2_CH3SO2-m1-quartet.rassi-SO-casscf-xmscaspt2.VTZP.ExpOrb_doublets

>>> COPY /home/vallet/John-methylsulfonyl/PuO2_CH3SO2_CH3SO2-m1/optg-freq-pbe0/SO-XMS/PuO2_CH3SO2_CH3SO2-m1-quartet.rassi-SO-casscf-xmscaspt2.VTZP.ExpOrb_quartets INPORB

--- Start Module: rasscf at Sat Nov 17 17:43:42 2018 ---
 
()()()()()()()()()()()()()()()()()()()()()()()()()()()()()()()()()()()()()()()()()()()()()()()()()()

                                              &RASSCF

                                   only a single process is used
                       available to each process: 32 GB of memory, 8 threads
()()()()()()()()()()()()()()()()()()()()()()()()()()()()()()()()()()()()()()()()()()()()()()()()()()
 
 
      Header of the ONEINT file:
      --------------------------
      
      Integrals generated by seward 4.2.0  , Sat Nov 17 17:35:17 2018
 
 
      OrdInt status: non-squared
 
 
      Cartesian coordinates in Angstrom:
      -----------------------------------------------------
      No.  Label        X            Y            Z        
      -----------------------------------------------------
       1   C1         0.00497000   3.44672000  -1.96018000
       2   S2         0.00658000   3.09894000  -0.17705000
       3   O3         1.23468000   2.19319000  -0.04344000
       4   O4        -1.22520000   2.19864000  -0.04046000
       5   PU5        0.00000000   0.00000000   0.00000000
       6   O6        -0.00066000   0.00000000  -1.75913000
       7   O7        -1.23207000  -2.19520000   0.04280000
       8   S8        -0.00261000  -3.09894000   0.17719000
       9   C9        -0.00141000  -3.44656000   1.96035000
      10   O10        0.00000000   0.00000000   1.75913000
      11   O11        1.22782000  -2.19665000   0.04123000
      12   H12        0.89769000  -4.01624000   2.19769000
      13   H13       -0.00399000  -2.48000000   2.46558000
      14   H14       -0.89705000  -4.02144000   2.19827000
      15   H15        0.90382000   4.01606000  -2.19925000
      16   H16        0.00097000   2.48020000  -2.46548000
      17   H17       -0.89091000   4.02196000  -2.19628000
      -----------------------------------------------------
      Nuclear repulsion energy = 2539.26188288
 
++    Wave function specifications:
      -----------------------------
 
      Number of closed shell electrons         190
      Number of electrons in active shells       3
      Max number of holes in RAS1 space          0
      Max nr of electrons in RAS3 space          0
      Number of inactive orbitals               95
      Number of active orbitals                  4
      Number of secondary orbitals             413
      Spin quantum number                      1.5
      State symmetry                             1
--
 
++    Orbital specifications:
      -----------------------
 
      Symmetry species                           1
                                                 a
      Frozen orbitals                            0
      Inactive orbitals                         95
      Active orbitals                            4
      RAS1 orbitals                              0
      RAS2 orbitals                              4
      RAS3 orbitals                              0
      Secondary orbitals                       413
      Deleted orbitals                           0
      Number of basis functions                512
--
 
++    CI expansion specifications:
      ----------------------------
 
      Number of CSFs                             4
      Number of determinants                     4
      Number of root(s) required                 4
      Root chosen for geometry opt.              4
      CI roots used                              1     2     3     4
      weights                                0.250 0.250 0.250 0.250
      highest root included in the CI            4
      max. size of the explicit Hamiltonian      4
--
 
++    Optimization specifications:
      ----------------------------
 
      RASSCF algorithm: LK RI/DF
      Maximum number of macro iterations       200
      Maximum number of SX iterations          100
      Threshold for RASSCF energy            0.100E-07
      Threshold for max MO rotation          0.100E+00
      Threshold for max BLB element          0.100E-03
      Level shift parameter                  0.500E+00
      Make Quasi-Newton update
--
 
      The MO-coefficients are taken from the file:
      INPORB                                                                                                                          
      Title:Basis set expanded orbital file EXPORB                                         
 
      Total molecular charge   -1.00
 
      ************************************************************************************************************************
      *                                                                                                                      *
      *                                            Wave function control section                                             *
      *                                                                                                                      *
      ************************************************************************************************************************
 
 
                                         RASSCF iterations: Energy and convergence statistics
                                         ----------------------------------------------------
 
      Iter CI   SX   CI       RASSCF       Energy    max ROT     max BLB   max BLB  Level Ln srch  Step   QN   Walltime
          iter iter root      energy       change     param      element    value   shift minimum  type update hh:mm:ss
 Nr of preliminary CI iterations:   1
      Total energies have been shifted. Add               -30000.00 au
        1   1   18    0  -864.43026094    0.00E+00  -0.42E-01   87 250 1 -0.24E+00*  0.34   0.00    SX    NO    0:05:50
        2   1   22    0  -865.32939591   -0.90E+00*  0.38E-01   81 115 1  0.11E+00*  0.40   0.00    SX    NO    0:02:52
        3   1   23    0  -865.54604947   -0.22E+00*  0.27E-01   81 115 1  0.70E-01*  0.35   0.00    SX    NO    0:02:56
        4   1   22    0  -865.61263015   -0.67E-01* -0.17E-01   81 115 1  0.46E-01*  0.38   0.00    SX    NO    0:02:58
        5   1   22    0  -865.63423095   -0.22E-01*  0.25E-01   81 115 1  0.28E-01*  0.35   1.82    QN   YES    0:02:59
        6   1   21    0  -865.64713020   -0.13E-01*  0.51E-02   85 106 1 -0.84E-02*  0.37   1.04    QN   YES    0:03:21
        7   1   18    0  -865.64802431   -0.89E-03*  0.30E-02   91 114 1 -0.36E-02*  0.36   1.33    QN   YES    0:04:35
        8   1   17    0  -865.64827373   -0.25E-03* -0.23E-02   86 102 1  0.17E-02*  0.36   1.39    QN   YES    0:04:08
        9   1   15    0  -865.64832436   -0.51E-04* -0.22E-02   97 101 1  0.57E-03*  0.36   1.31    QN   YES    0:03:16
       10   1   14    0  -865.64834012   -0.16E-04* -0.45E-02   85 106 1 -0.56E-03*  0.36   2.12    QN   YES    0:03:15
       11   1   15    0  -865.64835934   -0.19E-04* -0.55E-02   86 102 1 -0.49E-03*  0.36   1.76    QN   YES    0:03:16
       12   1   15    0  -865.64837611   -0.17E-04* -0.70E-02   86 102 1 -0.62E-03*  0.36   1.98    QN   YES    0:03:20
       13   1   15    0  -865.64839302   -0.17E-04*  0.50E-02   85 106 1  0.49E-03*  0.36   1.68    QN   YES    0:03:20
       14   1   13    0  -865.64840301   -0.10E-04*  0.19E-02   85 106 1  0.68E-03*  0.36   1.53    QN   YES    0:03:15
       15   1   12    0  -865.64840683   -0.38E-05*  0.40E-03   85 106 1  0.53E-03*  0.36   1.40    QN   YES    0:04:49
       16   1   11    0  -865.64840790   -0.11E-05*  0.27E-03   85 106 1  0.28E-03*  0.36   1.44    QN   YES    0:03:06
       17   1   11    0  -865.64840824   -0.34E-06*  0.15E-03   85 106 1  0.11E-03*  0.36   1.48    QN   YES    0:03:29
       18   1   10    0  -865.64840836   -0.12E-06* -0.15E-03   69 106 1 -0.32E-04   0.36   1.38    QN   YES    0:03:13
       19   1    9    0  -865.64840839   -0.35E-07* -0.10E-03   99 102 1 -0.20E-04   0.36   1.38    QN   YES    0:03:19
       20   1    8    0  -865.64840841   -0.13E-07*  0.94E-04   99 102 1 -0.18E-04   0.36   1.50    QN   YES    0:03:20
       21   1    8    0  -865.64840841   -0.76E-08   0.13E-03   99 102 1 -0.14E-04   0.36   1.58    QN   YES    0:03:20
      Convergence after 21 iterations
       22   1    8    0  -865.64840842   -0.55E-08   0.13E-03   86 102 1  0.95E-05   0.36   1.58    QN   YES    0:03:21
 
      ************************************************************************************************************************
                                                      Wave function printout:
                       occupation of active orbitals, and spin coupling of open shells (u,d: Spin up or down)
      ************************************************************************************************************************
 
      Note: transformation to natural orbitals
      has been made, which may change the order of the CSFs.
 
      printout of CI-coefficients larger than  0.05 for root  1
      energy=  -30865.668076
      conf/sym  1111     Coeff  Weight
             1  uuu0   0.29413 0.08651
             2  uu0u   0.19256 0.03708
             3  u0uu   0.93489 0.87402
 
      printout of CI-coefficients larger than  0.05 for root  2
      energy=  -30865.661824
      conf/sym  1111     Coeff  Weight
             1  uuu0   0.87353 0.76306
             2  uu0u   0.33065 0.10933
             3  u0uu  -0.33669 0.11336
             4  0uuu  -0.11939 0.01425
 
      printout of CI-coefficients larger than  0.05 for root  3
      energy=  -30865.635196
      conf/sym  1111     Coeff  Weight
             2  uu0u   0.31967 0.10219
             3  u0uu  -0.10476 0.01098
             4  0uuu   0.94115 0.88576
 
      printout of CI-coefficients larger than  0.05 for root  4
      energy=  -30865.628537
      conf/sym  1111     Coeff  Weight
             1  uuu0  -0.38646 0.14935
             2  uu0u   0.86684 0.75140
             4  0uuu  -0.31240 0.09759
 
      Natural orbitals and occupation numbers for root  1
      sym 1:   1.000000   0.000000   1.000000   1.000000
 
      Natural orbitals and occupation numbers for root  2
      sym 1:   1.000000   1.000000   1.000000  -0.000000
 
      Natural orbitals and occupation numbers for root  3
      sym 1:   0.000000   1.000000   1.000000   1.000000
 
      Natural orbitals and occupation numbers for root  4
      sym 1:   1.000000   1.000000   0.000000   1.000000
 
      ************************************************************************************************************************
      *                                                                                                                      *
      *                                                    Final results                                                     *
      *                                                                                                                      *
      ************************************************************************************************************************
 
 
++    Wave function specifications:
      -----------------------------
 
      Number of closed shell electrons         190
      Number of electrons in active shells       3
      Max number of holes in RAS1 space          0
      Max nr of electrons in RAS3 space          0
      Number of inactive orbitals               95
      Number of active orbitals                  4
      Number of secondary orbitals             413
      Spin quantum number                      1.5
      State symmetry                             1
--
 
++    Orbital specifications:
      -----------------------
 
      Symmetry species                           1
                                                 a
      Frozen orbitals                            0
      Inactive orbitals                         95
      Active orbitals                            4
      RAS1 orbitals                              0
      RAS2 orbitals                              4
      RAS3 orbitals                              0
      Secondary orbitals                       413
      Deleted orbitals                           0
      Number of basis functions                512
--
 
++    CI expansion specifications:
      ----------------------------
 
      Number of CSFs                             4
      Number of determinants                     4
      Number of root(s) required                 4
      CI roots used                              1     2     3     4
      weights                                0.250 0.250 0.250 0.250
      highest root included in the CI            4
      Root passed to geometry opt.               4
--
 
++    Final optimization conditions:
      ------------------------------
 
      Average CI energy                          -30865.64840842
      RASSCF energy for state  4                 -30865.62853727
      Super-CI energy                                -0.00000000
      RASSCF energy change                           -0.00000001
      Max change in MO coefficients              -0.126E-03
      Max non-diagonal density matrix element     0.127E-03
      Maximum BLB matrix element                  0.948E-05
      (orbital pair  86, 102 in symmetry   1)
      Norm of electronic gradient            0.157E+00
--
 
 
      Final state energy(ies):
      ------------------------
 
::    RASSCF root number  1 Total energy: -30865.66807645
::    RASSCF root number  2 Total energy: -30865.66182372
::    RASSCF root number  3 Total energy: -30865.63519624
::    RASSCF root number  4 Total energy: -30865.62853727
 
++    Molecular orbitals:
      -------------------
 
      Pseudonatural active orbitals and approximate occupation numbers
 
 
      MOLECULAR ORBITALS FOR SYMMETRY SPECIES 1: a  
 
      INDEX  ENERGY  OCCUPATION COEFFICIENTS ...
          1-4488.3687    2.0000                                                                                                           
               125 PU5    1s     ( 1.0000)
          2 -854.1119    2.0000                                                                                                           
               126 PU5    2s     ( 1.0000)
          3 -711.8226    2.0000                                                                                                           
               150 PU5    2pz    ( 1.0000)
          4 -711.8190    2.0000                                                                                                           
               142 PU5    2py    ( 1.0000)
          5 -711.8186    2.0000                                                                                                           
               134 PU5    2px    ( 1.0000)
          6 -220.4907    2.0000                                                                                                           
               127 PU5    3s     ( 1.0000)
          7 -180.4692    2.0000                                                                                                           
               151 PU5    3pz    ( 1.0000)
          8 -180.4644    2.0000                                                                                                           
               143 PU5    3py    ( 1.0000)
          9 -180.4630    2.0000                                                                                                           
               135 PU5    3px    ( 1.0000)
         10 -143.7268    2.0000                                                                                                           
               164 PU5    3d1-   ( 1.0000)
         11 -143.7261    2.0000                                                                                                           
               176 PU5    3d1+   ( 1.0000)
         12 -143.7260    2.0000                                                                                                           
               170 PU5    3d0    ( 0.9974)
         13 -143.7234    2.0000                                                                                                           
               182 PU5    3d2+   ( 0.9974)
         14 -143.7232    2.0000                                                                                                           
               158 PU5    3d2-   ( 1.0000)
         15  -92.2530    2.0000                                                                                                           
                31 S2     1s     (-1.0000)
         16  -92.2530    2.0000                                                                                                           
               305 S8     1s     ( 1.0000)
         17  -58.6532    2.0000                                                                                                           
               128 PU5    4s     ( 1.0000)
         18  -45.3145    2.0000                                                                                                           
               152 PU5    4pz    ( 1.0000)
         19  -45.3061    2.0000                                                                                                           
               144 PU5    4py    ( 1.0000)
         20  -45.3037    2.0000                                                                                                           
               136 PU5    4px    ( 1.0000)
         21  -31.2334    2.0000                                                                                                           
               171 PU5    4d0    ( 0.9965)
         22  -31.2303    2.0000                                                                                                           
               165 PU5    4d1-   ( 1.0000)
         23  -31.2292    2.0000                                                                                                           
               177 PU5    4d1+   ( 1.0000)
         24  -31.2220    2.0000                                                                                                           
               159 PU5    4d2-   ( 1.0000)
         25  -31.2212    2.0000                                                                                                           
               183 PU5    4d2+   ( 0.9965)
         26  -20.4062    2.0000                                                                                                           
                65 O3     1s     ( 0.7108)  95 O4     1s     (-0.6452) 275 O7     1s     (-0.2321) 399 O11    1s     ( 0.1536)
      
         27  -20.4062    2.0000                                                                                                           
                65 O3     1s     (-0.2045)  95 O4     1s     ( 0.1886) 275 O7     1s     (-0.8033) 399 O11    1s     ( 0.5255)
      
         28  -20.4062    2.0000                                                                                                           
                65 O3     1s     (-0.6689)  95 O4     1s     (-0.7358)
         29  -20.4062    2.0000                                                                                                           
               275 O7     1s     ( 0.5449) 399 O11    1s     ( 0.8318)
         30  -20.3939    2.0000                                                                                                           
               245 O6     1s     ( 0.7478) 369 O10    1s     ( 0.6636)
         31  -20.3939    2.0000                                                                                                           
               245 O6     1s     (-0.6634) 369 O10    1s     ( 0.7476)
         32  -16.7763    2.0000                                                                                                           
               200 PU5    4f0    ( 0.9939) 208 PU5    4f2+   ( 0.1103)
         33  -16.7700    2.0000                                                                                                           
               192 PU5    4f2-   ( 1.0000)
         34  -16.7690    2.0000                                                                                                           
               200 PU5    4f0    (-0.1103) 208 PU5    4f2+   ( 0.9939)
         35  -16.7624    2.0000                                                                                                           
               204 PU5    4f1+   (-0.1960) 212 PU5    4f3+   ( 0.9806)
         36  -16.7624    2.0000                                                                                                           
               188 PU5    4f3-   ( 0.9838) 196 PU5    4f1-   ( 0.1791)
         37  -16.7578    2.0000                                                                                                           
               188 PU5    4f3-   (-0.1791) 196 PU5    4f1-   ( 0.9838)
         38  -16.7569    2.0000                                                                                                           
               204 PU5    4f1+   ( 0.9806) 212 PU5    4f3+   ( 0.1960)
         39  -13.7148    2.0000                                                                                                           
               129 PU5    5s     ( 1.0003)
         40  -11.1279    2.0000                                                                                                           
                 1 C1     1s     (-1.0010)
         41  -11.1279    2.0000                                                                                                           
               339 C9     1s     ( 1.0010)
         42   -9.4392    2.0000                                                                                                           
               153 PU5    5pz    ( 0.9999)
         43   -9.4000    2.0000                                                                                                           
               145 PU5    5py    ( 0.9999)
         44   -9.3968    2.0000                                                                                                           
               137 PU5    5px    ( 0.9999)
         45   -8.9938    2.0000                                                                                                           
                32 S2     2s     (-0.9991)
         46   -8.9937    2.0000                                                                                                           
               306 S8     2s     ( 0.9991)
         47   -6.6262    2.0000                                                                                                           
                36 S2     2px    ( 0.9974)
         48   -6.6262    2.0000                                                                                                           
               310 S8     2px    ( 0.9974)
         49   -6.6261    2.0000                                                                                                           
                40 S2     2py    ( 0.5521)  44 S2     2pz    (-0.8341)
         50   -6.6260    2.0000                                                                                                           
               314 S8     2py    ( 0.5520) 318 S8     2pz    (-0.8342)
         51   -6.6242    2.0000                                                                                                           
                40 S2     2py    ( 0.8335)  44 S2     2pz    ( 0.5517)
         52   -6.6242    2.0000                                                                                                           
               314 S8     2py    ( 0.8336) 318 S8     2pz    ( 0.5516)
         53   -4.5555    2.0000                                                                                                           
               172 PU5    5d0    ( 0.9968)
         54   -4.5491    2.0000                                                                                                           
               166 PU5    5d1-   ( 0.9996)
         55   -4.5484    2.0000                                                                                                           
               178 PU5    5d1+   ( 0.9996)
         56   -4.5320    2.0000                                                                                                           
               184 PU5    5d2+   ( 0.9988)
         57   -4.5293    2.0000                                                                                                           
               160 PU5    5d2-   ( 0.9998)
         58   -2.1857    2.0000                                                                                                           
               130 PU5    6s     ( 0.9662)
         59   -1.3469    2.0000                                                                                                           
               154 PU5    6pz    ( 0.5649) 246 O6     2s     (-0.4124) 255 O6     2pz    (-0.1263) 370 O10    2s     ( 0.4124)
               379 O10    2pz    (-0.1263)
         60   -1.2681    2.0000                                                                                                           
                33 S2     3s     (-0.2425)  66 O3     2s     (-0.3433)  96 O4     2s     (-0.3433) 146 PU5    6py    (-0.1522)
               276 O7     2s     ( 0.3432) 307 S8     3s     ( 0.2425) 400 O11    2s     ( 0.3432)
         61   -1.2612    2.0000                                                                                                           
                33 S2     3s     ( 0.2556)  66 O3     2s     ( 0.3457)  96 O4     2s     ( 0.3456) 276 O7     2s     ( 0.3458)
               307 S8     3s     ( 0.2557) 400 O11    2s     ( 0.3458)
         62   -1.1570    2.0000                                                                                                           
                37 S2     3px    ( 0.1456)  66 O3     2s     ( 0.4116)  96 O4     2s     (-0.4116) 138 PU5    6px    ( 0.1498)
               276 O7     2s     (-0.4114) 311 S8     3px    ( 0.1455) 400 O11    2s     ( 0.4114)
         63   -1.1531    2.0000                                                                                                           
                37 S2     3px    (-0.1386)  66 O3     2s     (-0.4267)  96 O4     2s     ( 0.4267) 276 O7     2s     (-0.4269)
               311 S8     3px    ( 0.1386) 400 O11    2s     ( 0.4269)
         64   -1.0889    2.0000                                                                                                           
               130 PU5    6s     (-0.2638) 173 PU5    6d0    ( 0.1285) 246 O6     2s     ( 0.6564) 370 O10    2s     ( 0.6564)
      
         65   -1.0065    2.0000                                                                                                           
                33 S2     3s     (-0.1149) 146 PU5    6py    ( 0.9228) 307 S8     3s     ( 0.1149)
         66   -1.0032    2.0000                                                                                                           
               138 PU5    6px    ( 0.9533)
         67   -0.8827    2.0000                                                                                                           
                 2 C1     2s     ( 0.4304)  33 S2     3s     ( 0.2163)  45 S2     3pz    (-0.1279)  66 O3     2s     (-0.1509)
                96 O4     2s     (-0.1509) 276 O7     2s     (-0.1507) 307 S8     3s     ( 0.2161) 319 S8     3pz    ( 0.1277)
               340 C9     2s     ( 0.4300) 400 O11    2s     (-0.1508)
         68   -0.8796    2.0000                                                                                                           
                 2 C1     2s     (-0.4224)  33 S2     3s     (-0.1897)  45 S2     3pz    ( 0.1311)  66 O3     2s     ( 0.1542)
                96 O4     2s     ( 0.1542) 146 PU5    6py    (-0.1619) 276 O7     2s     (-0.1544) 307 S8     3s     ( 0.1899)
               319 S8     3pz    ( 0.1313) 340 C9     2s     ( 0.4229) 400 O11    2s     (-0.1544)
         69   -0.7878    2.0000                                                                                                           
               154 PU5    6pz    (-0.6948) 201 PU5    5f0    ( 0.1195) 246 O6     2s     (-0.5736) 255 O6     2pz    ( 0.1694)
               370 O10    2s     ( 0.5736) 379 O10    2pz    ( 0.1694)
         70   -0.6923    2.0000                                                                                                           
                 2 C1     2s     ( 0.2219)  11 C1     2pz    (-0.1347)  33 S2     3s     (-0.4672)  66 O3     2s     ( 0.2715)
                69 O3     2px    ( 0.1064)  72 O3     2py    (-0.1159)  96 O4     2s     ( 0.2714)  99 O4     2px    (-0.1069)
               102 O4     2py    (-0.1155) 276 O7     2s     ( 0.2713) 279 O7     2px    (-0.1066) 282 O7     2py    ( 0.1157)
               307 S8     3s     (-0.4670) 340 C9     2s     ( 0.2218) 349 C9     2pz    ( 0.1347) 400 O11    2s     ( 0.2713)
               403 O11    2px    ( 0.1067) 406 O11    2py    ( 0.1156)
         71   -0.6872    2.0000                                                                                                           
                 2 C1     2s     (-0.2161)  11 C1     2pz    ( 0.1354)  33 S2     3s     ( 0.4603)  66 O3     2s     (-0.2841)
                69 O3     2px    (-0.1172)  72 O3     2py    ( 0.1021)  96 O4     2s     (-0.2841)  99 O4     2px    ( 0.1177)
               102 O4     2py    ( 0.1016) 146 PU5    6py    ( 0.1241) 276 O7     2s     ( 0.2843) 279 O7     2px    (-0.1174)
               282 O7     2py    ( 0.1020) 307 S8     3s     (-0.4605) 340 C9     2s     ( 0.2162) 349 C9     2pz    ( 0.1355)
               400 O11    2s     ( 0.2842) 403 O11    2px    ( 0.1176) 406 O11    2py    ( 0.1018)
         72   -0.5133    2.0000                                                                                                           
                 8 C1     2py    ( 0.2360)  41 S2     3py    ( 0.1927)  45 S2     3pz    ( 0.1752)  69 O3     2px    ( 0.1340)
                75 O3     2pz    ( 0.1726)  99 O4     2px    (-0.1332) 105 O4     2pz    ( 0.1730) 279 O7     2px    (-0.1337)
               285 O7     2pz    (-0.1727) 315 S8     3py    (-0.1926) 319 S8     3pz    (-0.1751) 346 C9     2py    (-0.2359)
               403 O11    2px    ( 0.1335) 409 O11    2pz    (-0.1728) 429 H12    1s     ( 0.1171) 443 H13    1s     (-0.1753)
               457 H14    1s     ( 0.1184) 471 H15    1s     ( 0.1176) 485 H16    1s     (-0.1753) 499 H17    1s     ( 0.1179)
      
         73   -0.5063    2.0000                                                                                                           
                 8 C1     2py    ( 0.2578)  41 S2     3py    ( 0.1738)  45 S2     3pz    ( 0.2028)  75 O3     2pz    ( 0.1945)
               105 O4     2pz    ( 0.1948) 285 O7     2pz    ( 0.1946) 315 S8     3py    ( 0.1738) 319 S8     3pz    ( 0.2028)
               346 C9     2py    ( 0.2578) 409 O11    2pz    ( 0.1948) 429 H12    1s     (-0.1306) 443 H13    1s     ( 0.1881)
               457 H14    1s     (-0.1325) 471 H15    1s     ( 0.1313) 485 H16    1s     (-0.1881) 499 H17    1s     ( 0.1317)
      
         74   -0.5037    2.0000                                                                                                           
                 5 C1     2px    (-0.2255)  37 S2     3px    (-0.2553)  66 O3     2s     ( 0.1856)  69 O3     2px    ( 0.1078)
                72 O3     2py    (-0.2409)  96 O4     2s     (-0.1853)  99 O4     2px    ( 0.1083) 102 O4     2py    ( 0.2404)
               276 O7     2s     ( 0.1856) 279 O7     2px    (-0.1084) 282 O7     2py    ( 0.2404) 311 S8     3px    ( 0.2552)
               343 C9     2px    ( 0.2254) 400 O11    2s     (-0.1851) 403 O11    2px    (-0.1076) 406 O11    2py    (-0.2407)
               429 H12    1s     ( 0.1712) 457 H14    1s     (-0.1705) 471 H15    1s     (-0.1712) 499 H17    1s     ( 0.1708)
      
         75   -0.4973    2.0000                                                                                                           
                 5 C1     2px    ( 0.2565)  37 S2     3px    ( 0.2314)  66 O3     2s     (-0.1783)  69 O3     2px    (-0.1108)
                72 O3     2py    ( 0.2122)  96 O4     2s     ( 0.1778)  99 O4     2px    (-0.1107) 102 O4     2py    (-0.2118)
               276 O7     2s     ( 0.1783) 279 O7     2px    (-0.1110) 282 O7     2py    ( 0.2121) 311 S8     3px    ( 0.2316)
               343 C9     2px    ( 0.2566) 400 O11    2s     (-0.1781) 403 O11    2px    (-0.1106) 406 O11    2py    (-0.2122)
               429 H12    1s     ( 0.1966) 457 H14    1s     (-0.1957) 471 H15    1s     ( 0.1961) 499 H17    1s     (-0.1960)
      
         76   -0.4953    2.0000                                                                                                           
                11 C1     2pz    (-0.1989)  41 S2     3py    (-0.1967)  45 S2     3pz    ( 0.2248)  66 O3     2s     (-0.1429)
                69 O3     2px    (-0.2467)  75 O3     2pz    ( 0.1665)  96 O4     2s     (-0.1435)  99 O4     2px    ( 0.2474)
               105 O4     2pz    ( 0.1657) 276 O7     2s     (-0.1429) 279 O7     2px    ( 0.2467) 285 O7     2pz    (-0.1662)
               315 S8     3py    ( 0.1966) 319 S8     3pz    (-0.2247) 349 C9     2pz    ( 0.1988) 400 O11    2s     (-0.1433)
               403 O11    2px    (-0.2472) 409 O11    2pz    (-0.1658)
         77   -0.4905    2.0000                                                                                                           
                11 C1     2pz    (-0.2150)  41 S2     3py    (-0.2356)  45 S2     3pz    ( 0.2150)  66 O3     2s     (-0.1404)
                69 O3     2px    (-0.2455)  75 O3     2pz    ( 0.1428)  96 O4     2s     (-0.1407)  99 O4     2px    ( 0.2460)
               105 O4     2pz    ( 0.1420) 276 O7     2s     ( 0.1403) 279 O7     2px    (-0.2456) 285 O7     2pz    ( 0.1427)
               315 S8     3py    (-0.2357) 319 S8     3pz    ( 0.2151) 349 C9     2pz    (-0.2150) 400 O11    2s     ( 0.1409)
               403 O11    2px    ( 0.2462) 409 O11    2pz    ( 0.1423) 443 H13    1s     (-0.1136) 485 H16    1s     ( 0.1136)
      
         78   -0.4531    2.0000                                                                                                           
                 5 C1     2px    (-0.2965)  37 S2     3px    ( 0.2054)  66 O3     2s     (-0.1291)  69 O3     2px    (-0.1142)
                72 O3     2py    ( 0.1985)  96 O4     2s     ( 0.1291)  99 O4     2px    (-0.1151) 102 O4     2py    (-0.1979)
               276 O7     2s     (-0.1290) 279 O7     2px    ( 0.1143) 282 O7     2py    (-0.1982) 311 S8     3px    (-0.2051)
               343 C9     2px    ( 0.2962) 400 O11    2s     ( 0.1289) 403 O11    2px    ( 0.1147) 406 O11    2py    ( 0.1978)
               429 H12    1s     ( 0.2407) 457 H14    1s     (-0.2399) 471 H15    1s     (-0.2407) 499 H17    1s     ( 0.2403)
      
         79   -0.4485    2.0000                                                                                                           
                 5 C1     2px    (-0.2711)  37 S2     3px    ( 0.2336)  66 O3     2s     (-0.1581)  69 O3     2px    (-0.1454)
                72 O3     2py    ( 0.2119)  96 O4     2s     ( 0.1580)  99 O4     2px    (-0.1462) 102 O4     2py    (-0.2115)
               276 O7     2s     ( 0.1582) 279 O7     2px    (-0.1456) 282 O7     2py    ( 0.2123) 311 S8     3px    ( 0.2338)
               343 C9     2px    (-0.2713) 400 O11    2s     (-0.1581) 403 O11    2px    (-0.1462) 406 O11    2py    (-0.2115)
               429 H12    1s     (-0.2212) 457 H14    1s     ( 0.2208) 471 H15    1s     (-0.2208) 499 H17    1s     ( 0.2207)
      
         80   -0.4373    2.0000                                                                                                           
                 8 C1     2py    (-0.2817)  11 C1     2pz    (-0.1373)  45 S2     3pz    ( 0.1296)  69 O3     2px    ( 0.1424)
                72 O3     2py    ( 0.1722)  75 O3     2pz    ( 0.1133)  99 O4     2px    (-0.1417) 102 O4     2py    ( 0.1724)
               105 O4     2pz    ( 0.1134) 279 O7     2px    (-0.1424) 282 O7     2py    (-0.1719) 285 O7     2pz    (-0.1130)
               319 S8     3pz    (-0.1295) 346 C9     2py    ( 0.2817) 349 C9     2pz    ( 0.1372) 403 O11    2px    ( 0.1416)
               406 O11    2py    (-0.1727) 409 O11    2pz    (-0.1137) 429 H12    1s     (-0.1122) 443 H13    1s     ( 0.2884)
               457 H14    1s     (-0.1130) 471 H15    1s     (-0.1125) 485 H16    1s     ( 0.2885) 499 H17    1s     (-0.1127)
      
         81   -0.4302    2.0000                                                                                                           
                 8 C1     2py    (-0.2649)  11 C1     2pz    (-0.1031)  33 S2     3s     ( 0.1112)  41 S2     3py    ( 0.1806)
                45 S2     3pz    ( 0.1205)  69 O3     2px    ( 0.1713)  72 O3     2py    ( 0.1410)  75 O3     2pz    ( 0.1370)
                99 O4     2px    (-0.1702) 102 O4     2py    ( 0.1418) 105 O4     2pz    ( 0.1373) 279 O7     2px    ( 0.1710)
               282 O7     2py    ( 0.1412) 285 O7     2pz    ( 0.1368) 307 S8     3s     (-0.1112) 315 S8     3py    ( 0.1807)
               319 S8     3pz    ( 0.1205) 346 C9     2py    (-0.2650) 349 C9     2pz    (-0.1031) 403 O11    2px    (-0.1706)
               406 O11    2py    ( 0.1417) 409 O11    2pz    ( 0.1375) 429 H12    1s     ( 0.1148) 443 H13    1s     (-0.2691)
               457 H14    1s     ( 0.1160) 471 H15    1s     (-0.1151) 485 H16    1s     ( 0.2691) 499 H17    1s     (-0.1157)
      
         82   -0.3823    2.0000                                                                                                           
                75 O3     2pz    ( 0.2007) 105 O4     2pz    (-0.2015) 179 PU5    6d1+   ( 0.2347) 249 O6     2px    (-0.5228)
               285 O7     2pz    (-0.2008) 373 O10    2px    ( 0.5228) 409 O11    2pz    ( 0.2014)
         83   -0.3782    2.0000                                                                                                           
                 8 C1     2py    (-0.1133)  41 S2     3py    ( 0.1325)  72 O3     2py    (-0.1446) 102 O4     2py    (-0.1449)
               167 PU5    6d1-   ( 0.1965) 173 PU5    6d0    (-0.1552) 252 O6     2py    (-0.4438) 255 O6     2pz    (-0.2192)
               282 O7     2py    ( 0.1446) 315 S8     3py    (-0.1325) 346 C9     2py    ( 0.1133) 376 O10    2py    ( 0.4438)
               379 O10    2pz    ( 0.2192) 406 O11    2py    ( 0.1448)
         84   -0.3643    2.0000                                                                                                           
                41 S2     3py    ( 0.1747) 130 PU5    6s     ( 0.1675) 167 PU5    6d1-   (-0.1343) 173 PU5    6d0    (-0.2431)
               246 O6     2s     ( 0.1416) 252 O6     2py    ( 0.3604) 255 O6     2pz    (-0.4412) 315 S8     3py    (-0.1748)
               370 O10    2s     ( 0.1416) 376 O10    2py    (-0.3604) 379 O10    2pz    ( 0.4412)
         85   -0.3480    2.0000                                                                                                           
                72 O3     2py    ( 0.1131)  75 O3     2pz    ( 0.4509) 102 O4     2py    (-0.1138) 105 O4     2pz    (-0.4509)
               282 O7     2py    ( 0.1134) 285 O7     2pz    ( 0.4510) 406 O11    2py    (-0.1136) 409 O11    2pz    (-0.4507)
      
         86   -0.3393    2.0000                                                                                                           
                69 O3     2px    (-0.1916)  72 O3     2py    (-0.1633)  75 O3     2pz    (-0.3541)  99 O4     2px    (-0.1903)
               102 O4     2py    ( 0.1662) 105 O4     2pz    ( 0.3529) 249 O6     2px    (-0.2901) 279 O7     2px    ( 0.1914)
               282 O7     2py    ( 0.1656) 285 O7     2pz    ( 0.3527) 373 O10    2px    ( 0.2900) 403 O11    2px    ( 0.1905)
               406 O11    2py    (-0.1640) 409 O11    2pz    (-0.3544)
         87   -0.3381    2.0000                                                                                                           
                 8 C1     2py    ( 0.1077)  11 C1     2pz    (-0.1128)  41 S2     3py    (-0.1879)  72 O3     2py    ( 0.2440)
                75 O3     2pz    (-0.1882) 102 O4     2py    ( 0.2419) 105 O4     2pz    (-0.1920) 197 PU5    5f1-   ( 0.1693)
               201 PU5    5f0    ( 0.1966) 252 O6     2py    ( 0.3461) 255 O6     2pz    (-0.1311) 282 O7     2py    ( 0.2418)
               285 O7     2pz    (-0.1907) 315 S8     3py    (-0.1878) 346 C9     2py    ( 0.1077) 349 C9     2pz    (-0.1128)
               376 O10    2py    ( 0.3462) 379 O10    2pz    (-0.1310) 406 O11    2py    ( 0.2439) 409 O11    2pz    (-0.1895)
      
         88   -0.3329    2.0000                                                                                                           
                41 S2     3py    (-0.2203)  72 O3     2py    ( 0.2491)  75 O3     2pz    (-0.1863) 102 O4     2py    ( 0.2460)
               105 O4     2pz    (-0.1845) 130 PU5    6s     ( 0.2283) 173 PU5    6d0    (-0.1098) 246 O6     2s     ( 0.1020)
               252 O6     2py    (-0.1789) 255 O6     2pz    (-0.3766) 282 O7     2py    (-0.2463) 285 O7     2pz    ( 0.1845)
               315 S8     3py    ( 0.2203) 370 O10    2s     ( 0.1020) 376 O10    2py    ( 0.1787) 379 O10    2pz    ( 0.3767)
               406 O11    2py    (-0.2489) 409 O11    2pz    ( 0.1864)
         89   -0.3320    2.0000                                                                                                           
                69 O3     2px    ( 0.1533)  99 O4     2px    ( 0.1537) 102 O4     2py    (-0.1009) 138 PU5    6px    (-0.1989)
               205 PU5    5f1+   ( 0.2496) 249 O6     2px    ( 0.5775) 279 O7     2px    ( 0.1538) 282 O7     2py    ( 0.1004)
               373 O10    2px    ( 0.5776) 403 O11    2px    ( 0.1531)
         90   -0.3252    2.0000                                                                                                           
                69 O3     2px    (-0.3540)  72 O3     2py    (-0.2029)  75 O3     2pz    ( 0.2360)  99 O4     2px    (-0.3562)
               102 O4     2py    ( 0.2151) 105 O4     2pz    (-0.2421) 249 O6     2px    ( 0.1219) 279 O7     2px    ( 0.3563)
               282 O7     2py    ( 0.2138) 285 O7     2pz    (-0.2426) 373 O10    2px    (-0.1219) 403 O11    2px    ( 0.3538)
               406 O11    2py    (-0.2040) 409 O11    2pz    ( 0.2356)
         91   -0.3249    2.0000                                                                                                           
                72 O3     2py    ( 0.1671)  75 O3     2pz    (-0.1098) 102 O4     2py    ( 0.1554) 146 PU5    6py    ( 0.3224)
               154 PU5    6pz    (-0.1074) 197 PU5    5f1-   (-0.1928) 201 PU5    5f0    ( 0.2096) 252 O6     2py    (-0.5229)
               255 O6     2pz    (-0.1388) 282 O7     2py    ( 0.1547) 376 O10    2py    (-0.5229) 379 O10    2pz    (-0.1389)
               406 O11    2py    ( 0.1678) 409 O11    2pz    (-0.1088)
         92   -0.3169    2.0000                                                                                                           
                69 O3     2px    ( 0.3505)  72 O3     2py    ( 0.2571)  75 O3     2pz    (-0.1130)  99 O4     2px    ( 0.3494)
               102 O4     2py    (-0.2572) 105 O4     2pz    ( 0.1113) 138 PU5    6px    ( 0.2055) 249 O6     2px    (-0.2533)
               279 O7     2px    ( 0.3502) 282 O7     2py    ( 0.2575) 285 O7     2pz    (-0.1127) 373 O10    2px    (-0.2533)
               403 O11    2px    ( 0.3499) 406 O11    2py    (-0.2569) 409 O11    2pz    ( 0.1117)
         93   -0.3095    2.0000                                                                                                           
                41 S2     3py    (-0.1449)  72 O3     2py    ( 0.1577) 102 O4     2py    ( 0.1595) 146 PU5    6py    ( 0.1103)
               154 PU5    6pz    ( 0.3755) 201 PU5    5f0    (-0.6183) 255 O6     2pz    ( 0.4127) 282 O7     2py    ( 0.1580)
               315 S8     3py    (-0.1449) 379 O10    2pz    ( 0.4127) 406 O11    2py    ( 0.1592)
         94   -0.2308    2.0000                                                                                                           
                11 C1     2pz    (-0.2225)  33 S2     3s     ( 0.2155)  41 S2     3py    ( 0.3157)  45 S2     3pz    ( 0.3430)
                72 O3     2py    (-0.1741)  75 O3     2pz    (-0.3147) 102 O4     2py    (-0.1739) 105 O4     2pz    (-0.3147)
               252 O6     2py    (-0.1333) 282 O7     2py    ( 0.1740) 285 O7     2pz    ( 0.3146) 307 S8     3s     ( 0.2154)
               315 S8     3py    (-0.3157) 319 S8     3pz    (-0.3429) 349 C9     2pz    ( 0.2225) 376 O10    2py    ( 0.1333)
               406 O11    2py    ( 0.1739) 409 O11    2pz    ( 0.3146)
         95   -0.2279    2.0000                                                                                                           
                11 C1     2pz    (-0.2088)  33 S2     3s     ( 0.2198)  41 S2     3py    ( 0.3272)  45 S2     3pz    ( 0.3345)
                72 O3     2py    (-0.2110)  75 O3     2pz    (-0.2999) 102 O4     2py    (-0.2110) 105 O4     2pz    (-0.2999)
               154 PU5    6pz    ( 0.1145) 201 PU5    5f0    (-0.1146) 282 O7     2py    (-0.2111) 285 O7     2pz    (-0.3000)
               307 S8     3s     (-0.2198) 315 S8     3py    ( 0.3274) 319 S8     3pz    ( 0.3346) 349 C9     2pz    (-0.2089)
               406 O11    2py    (-0.2111) 409 O11    2pz    (-0.3001)
         96    0.0000    0.7500                                                                                                           
               189 PU5    5f3-   (-0.1160) 193 PU5    5f2-   (-0.3083) 209 PU5    5f2+   (-0.9394)
         97    0.0000    0.7500                                                                                                           
               189 PU5    5f3-   ( 0.3320) 205 PU5    5f1+   (-0.1114) 209 PU5    5f2+   (-0.1036) 213 PU5    5f3+   ( 0.9264)
      
         98    0.0000    0.7500                                                                                                           
               189 PU5    5f3-   ( 0.3321) 193 PU5    5f2-   ( 0.8639) 209 PU5    5f2+   (-0.3145) 213 PU5    5f3+   (-0.1940)
      
         99    0.0000    0.7500                                                                                                           
               189 PU5    5f3-   (-0.8729) 193 PU5    5f2-   ( 0.3871) 213 PU5    5f3+   ( 0.2848)
        100    0.1434    0.0000                                                                                                           
                 1 C1     1s     ( 0.3429)   2 C1     2s     ( 2.0290)   3 C1     3s     ( 1.0507)   4 C1     4s     ( 0.1403)
                 8 C1     2py    ( 0.4875)   9 C1     3py    ( 0.2926)  11 C1     2pz    (-0.2338)  12 C1     3pz    (-0.1344)
                33 S2     3s     (-0.1114)  41 S2     3py    ( 0.2300)  42 S2     4py    ( 0.2203) 146 PU5    6py    ( 0.3188)
               147 PU5    7py    ( 0.7778) 148 PU5    8py    ( 0.1767) 155 PU5    7pz    ( 0.1040) 307 S8     3s     ( 0.1115)
               315 S8     3py    ( 0.2299) 316 S8     4py    ( 0.2202) 339 C9     1s     (-0.3425) 340 C9     2s     (-2.0269)
               341 C9     3s     (-1.0496) 342 C9     4s     (-0.1402) 346 C9     2py    ( 0.4870) 347 C9     3py    ( 0.2923)
               349 C9     2pz    (-0.2336) 350 C9     3pz    (-0.1343) 429 H12    1s     ( 1.3335) 430 H12    2s     ( 1.1138)
               432 H12    2px    (-0.2694) 433 H12    3px    (-0.1676) 434 H12    2py    ( 0.1809) 435 H12    3py    ( 0.1170)
               443 H13    1s     (-0.2948) 444 H13    2s     (-0.4654) 445 H13    3s     (-0.1346) 457 H14    1s     ( 1.3425)
               458 H14    2s     ( 1.1223) 460 H14    2px    ( 0.2699) 461 H14    3px    ( 0.1679) 462 H14    2py    ( 0.1834)
               463 H14    3py    ( 0.1186) 471 H15    1s     (-1.3374) 472 H15    2s     (-1.1173) 474 H15    2px    ( 0.2700)
               475 H15    3px    ( 0.1680) 476 H15    2py    ( 0.1813) 477 H15    3py    ( 0.1173) 485 H16    1s     ( 0.2951)
               486 H16    2s     ( 0.4658) 487 H16    3s     ( 0.1347) 499 H17    1s     (-1.3412) 500 H17    2s     (-1.1209)
               502 H17    2px    (-0.2698) 503 H17    3px    (-0.1678) 504 H17    2py    ( 0.1834) 505 H17    3py    ( 0.1186)
      
        101    0.1449    0.0000                                                                                                           
                 1 C1     1s     (-0.3525)   2 C1     2s     (-2.0934)   3 C1     3s     (-1.0927)   4 C1     4s     (-0.1475)
                 8 C1     2py    (-0.4938)   9 C1     3py    (-0.2943)  11 C1     2pz    ( 0.2324)  12 C1     3pz    ( 0.1326)
                41 S2     3py    (-0.1397)  42 S2     4py    (-0.1555) 130 PU5    6s     (-0.1407) 131 PU5    7s     (-0.3426)
               315 S8     3py    ( 0.1400) 316 S8     4py    ( 0.1558) 339 C9     1s     (-0.3529) 340 C9     2s     (-2.0954)
               341 C9     3s     (-1.0937) 342 C9     4s     (-0.1477) 346 C9     2py    ( 0.4942) 347 C9     3py    ( 0.2945)
               349 C9     2pz    (-0.2326) 350 C9     3pz    (-0.1328) 429 H12    1s     ( 1.3415) 430 H12    2s     ( 1.1137)
               432 H12    2px    (-0.2748) 433 H12    3px    (-0.1710) 434 H12    2py    ( 0.1816) 435 H12    3py    ( 0.1173)
               443 H13    1s     (-0.3390) 444 H13    2s     (-0.5249) 445 H13    3s     (-0.1485) 457 H14    1s     ( 1.3506)
               458 H14    2s     ( 1.1224) 460 H14    2px    ( 0.2754) 461 H14    3px    ( 0.1714) 462 H14    2py    ( 0.1841)
               463 H14    3py    ( 0.1188) 471 H15    1s     ( 1.3431) 472 H15    2s     ( 1.1153) 474 H15    2px    (-0.2750)
               475 H15    3px    (-0.1712) 476 H15    2py    (-0.1816) 477 H15    3py    (-0.1173) 485 H16    1s     (-0.3388)
               486 H16    2s     (-0.5244) 487 H16    3s     (-0.1484) 499 H17    1s     ( 1.3464) 500 H17    2s     ( 1.1186)
               502 H17    2px    ( 0.2747) 503 H17    3px    ( 0.1709) 504 H17    2py    (-0.1837) 505 H17    3py    (-0.1186)
      
--
 
      Von Neumann Entropy (Root  1) =  1.50000
 

      Mulliken population analysis for root number:  1
      -----------------------------------------------
 
 
++    Molecular charges:
      ------------------
 
      Mulliken charges per centre and basis function type
      ---------------------------------------------------
 
                C1      S2      O3      O4      PU5     O6      O7      S8      C9      O10     O11     H12   
      1s       2.0019  2.0000  1.9989  1.9989  2.0000  1.9994  1.9989  2.0000  2.0019  1.9994  1.9989  0.8696
      2s       1.3309  1.9990  1.8723  1.8723  2.0000  1.9112  1.8723  1.9990  1.3309  1.9112  1.8723 -0.0141
      2px      0.9951  2.0014  1.4350  1.4328  2.0000  1.6820  1.4342  2.0014  0.9951  1.6820  1.4337  0.0042
      2pz      0.8968  2.0006  1.8303  1.8302  2.0000  1.3856  1.8303  2.0006  0.8968  1.3856  1.8302  0.0162
      2py      1.0115  2.0002  1.5695  1.5718  2.0000  1.7031  1.5704  2.0002  1.0115  1.7031  1.5710  0.0090
      3s       0.0338  1.5802  0.0026  0.0026  2.0000  0.0099  0.0026  1.5802  0.0338  0.0099  0.0026 -0.0047
      3px     -0.0103  0.6568 -0.0008 -0.0008  2.0000  0.0023 -0.0008  0.6568 -0.0103  0.0023 -0.0008 -0.0072
      3pz     -0.0058  1.1094 -0.0158 -0.0158  2.0000 -0.0131 -0.0158  1.1094 -0.0058 -0.0131 -0.0158  0.0008
      3py     -0.0136  1.1649 -0.0120 -0.0120  2.0000 -0.0056 -0.0120  1.1650 -0.0136 -0.0056 -0.0120 -0.0019
      4s       0.0067  0.0132  0.0059  0.0059  2.0000  0.0042  0.0059  0.0132  0.0067  0.0042  0.0059  0.0000
      3d2+     0.0105  0.1870  0.0087  0.0087  2.0000  0.0005  0.0087  0.1870  0.0105  0.0005  0.0087  0.0019
      3d1+     0.0056  0.1252  0.0063  0.0064  2.0000  0.0098  0.0063  0.1252  0.0056  0.0098  0.0063  0.0014
      3d0      0.0248  0.1570  0.0032  0.0032  2.0000  0.0108  0.0032  0.1571  0.0248  0.0108  0.0032  0.0004
      3d1-     0.0145  0.1076  0.0026  0.0026  2.0000  0.0096  0.0026  0.1076  0.0145  0.0096  0.0026  0.0007
      3d2-     0.0194  0.1673  0.0095  0.0095  2.0000  0.0004  0.0095  0.1673  0.0194  0.0004  0.0095  0.0007
      4px     -0.0009  0.0288  0.0013  0.0013  2.0000  0.0010  0.0013  0.0288 -0.0009  0.0010  0.0013  0.0000
      4pz     -0.0005 -0.0070 -0.0005 -0.0005  2.0000  0.0001 -0.0005 -0.0070 -0.0005  0.0001 -0.0005  0.0000
      4py     -0.0014 -0.0136  0.0001  0.0001  2.0000 -0.0007  0.0001 -0.0136 -0.0014 -0.0007  0.0001  0.0000
      5s       0.0000  0.0061  0.0000  0.0000  2.0005  0.0000  0.0000  0.0061  0.0000  0.0000  0.0000  0.0000
      4d2+    -0.0001  0.0009  0.0021  0.0021  2.0000  0.0000  0.0021  0.0009 -0.0001  0.0000  0.0021  0.0000
      4d1+     0.0008 -0.0002  0.0011  0.0011  2.0000  0.0016  0.0011 -0.0002  0.0008  0.0016  0.0011  0.0000
      4d0      0.0008  0.0026  0.0000  0.0000  2.0000 -0.0017  0.0000  0.0026  0.0008 -0.0017  0.0000  0.0000
      4d1-     0.0015  0.0012  0.0004  0.0004  2.0000  0.0015  0.0004  0.0012  0.0015  0.0015  0.0004  0.0000
      4d2-    -0.0007  0.0009  0.0007  0.0007  2.0000 -0.0001  0.0007  0.0009 -0.0007 -0.0001  0.0007  0.0000
      5px      0.0000 -0.0025  0.0000  0.0000  1.9999  0.0000  0.0000 -0.0025  0.0000  0.0000  0.0000  0.0000
      5pz      0.0000 -0.0005  0.0000  0.0000  2.0000  0.0000  0.0000 -0.0005  0.0000  0.0000  0.0000  0.0000
      5py      0.0000 -0.0018  0.0000  0.0000  1.9998  0.0000  0.0000 -0.0018  0.0000  0.0000  0.0000  0.0000
      6s       0.0000  0.0000  0.0000  0.0000  1.9753  0.0000  0.0000  0.0000  0.0000  0.0000  0.0000  0.0000
      4f3+     0.0000  0.0366  0.0010  0.0010  2.0000 -0.0000  0.0010  0.0366  0.0000 -0.0000  0.0010  0.0000
      4f2+     0.0005  0.0020  0.0001  0.0001  2.0000  0.0001  0.0001  0.0020  0.0005  0.0001  0.0001  0.0000
      4f1+     0.0010  0.0103  0.0004  0.0004  2.0000  0.0012  0.0004  0.0103  0.0010  0.0012  0.0004  0.0000
      4f0      0.0020  0.0260  0.0006  0.0006  2.0000  0.0015  0.0006  0.0260  0.0020  0.0015  0.0006  0.0000
      4f1-     0.0018  0.0075  0.0003  0.0003  2.0000  0.0012  0.0003  0.0075  0.0018  0.0012  0.0003  0.0000
      4f2-     0.0002  0.0229  0.0006  0.0006  2.0000  0.0001  0.0006  0.0229  0.0002  0.0001  0.0006  0.0000
      4f3-     0.0027  0.0202  0.0007  0.0007  2.0000  0.0000  0.0007  0.0202  0.0027  0.0000  0.0007  0.0000
      5d2+     0.0000  0.0000  0.0000  0.0000  1.9997  0.0000  0.0000  0.0000  0.0000  0.0000  0.0000  0.0000
      5d1+     0.0000  0.0000  0.0000  0.0000  1.9990  0.0000  0.0000  0.0000  0.0000  0.0000  0.0000  0.0000
      5d0      0.0000  0.0000  0.0000  0.0000  1.9959  0.0000  0.0000  0.0000  0.0000  0.0000  0.0000  0.0000
      5d1-     0.0000  0.0000  0.0000  0.0000  1.9991  0.0000  0.0000  0.0000  0.0000  0.0000  0.0000  0.0000
      5d2-     0.0000  0.0000  0.0000  0.0000  1.9995  0.0000  0.0000  0.0000  0.0000  0.0000  0.0000  0.0000
      6px      0.0000  0.0000  0.0000  0.0000  1.9767  0.0000  0.0000  0.0000  0.0000  0.0000  0.0000  0.0000
      6pz      0.0000  0.0000  0.0000  0.0000  1.7713  0.0000  0.0000  0.0000  0.0000  0.0000  0.0000  0.0000
      6py      0.0000  0.0000  0.0000  0.0000  1.9715  0.0000  0.0000  0.0000  0.0000  0.0000  0.0000  0.0000
      7s       0.0000  0.0000  0.0000  0.0000  0.0963  0.0000  0.0000  0.0000  0.0000  0.0000  0.0000  0.0000
      5f3+     0.0000  0.0000  0.0000  0.0000  0.0225  0.0000  0.0000  0.0000  0.0000  0.0000  0.0000  0.0000
      5f2+     0.0000  0.0000  0.0000  0.0000  0.9965  0.0000  0.0000  0.0000  0.0000  0.0000  0.0000  0.0000
      5f1+     0.0000  0.0000  0.0000  0.0000  0.2213  0.0000  0.0000  0.0000  0.0000  0.0000  0.0000  0.0000
      5f0      0.0000  0.0000  0.0000  0.0000  1.1272  0.0000  0.0000  0.0000  0.0000  0.0000  0.0000  0.0000
      5f1-     0.0000  0.0000  0.0000  0.0000  0.2228  0.0000  0.0000  0.0000  0.0000  0.0000  0.0000  0.0000
      5f2-     0.0000  0.0000  0.0000  0.0000  0.9969  0.0000  0.0000  0.0000  0.0000  0.0000  0.0000  0.0000
      5f3-     0.0000  0.0000  0.0000  0.0000  0.9971  0.0000  0.0000  0.0000  0.0000  0.0000  0.0000  0.0000
      6d2+     0.0000  0.0000  0.0000  0.0000  0.0487  0.0000  0.0000  0.0000  0.0000  0.0000  0.0000  0.0000
      6d1+     0.0000  0.0000  0.0000  0.0000  0.3308  0.0000  0.0000  0.0000  0.0000  0.0000  0.0000  0.0000
      6d0      0.0000  0.0000  0.0000  0.0000  0.4016  0.0000  0.0000  0.0000  0.0000  0.0000  0.0000  0.0000
      6d1-     0.0000  0.0000  0.0000  0.0000  0.3296  0.0000  0.0000  0.0000  0.0000  0.0000  0.0000  0.0000
      6d2-     0.0000  0.0000  0.0000  0.0000  0.1059  0.0000  0.0000  0.0000  0.0000  0.0000  0.0000  0.0000
      7px      0.0000  0.0000  0.0000  0.0000  0.0024  0.0000  0.0000  0.0000  0.0000  0.0000  0.0000  0.0000
      7pz      0.0000  0.0000  0.0000  0.0000  0.0203  0.0000  0.0000  0.0000  0.0000  0.0000  0.0000  0.0000
      7py      0.0000  0.0000  0.0000  0.0000  0.0528  0.0000  0.0000  0.0000  0.0000  0.0000  0.0000  0.0000
      5g4+     0.0000  0.0000  0.0000  0.0000  0.0010  0.0000  0.0000  0.0000  0.0000  0.0000  0.0000  0.0000
[...]
    16             0.0693527886        1.8871855020          15221.1777
    17             0.0716730790        1.9503238197          15730.4226
    18             0.0717304306        1.9518844361          15743.0098
    19             0.0921949954        2.5087536084          20234.4626
    20             0.0948505221        2.5810141699          20817.2834
    21             0.1567813270        4.2662372100          34409.5240
    22             0.1716515839        4.6708775110          37673.1681
    23             0.1795177043        4.8849255497          39399.5820
    24             0.1842113540        5.0126462622          40429.7190
 
++ Dipole transition strengths (spin-free states):
   -----------------------------------------------
     for osc. strength at least  1.00000000E-05
 
  ( Max oscillator strength is only   2.013557057712776E-009 )
--
 
++ Velocity transition strengths (spin-free states):
   -------------------------------------------------
     for osc. strength at least  1.00000000E-05
 
  ( Max oscillator strength is only   1.501061212845544E-006 )
--
 
 --------------------------------------------------
 
 A comparison between the dipole oscillator strengths in 
 length and velocity gauge will be performed
 
 All dipole oscillator differences above the tolerance of 
  0.100000000000000       will be printed 
 
 Due to basis set deficiency these oscillator may be problematic 
 
 The tolerance is defined as ABS(1-O_l/O_v) 
 O_l : dipole oscillator strength in length gauge
 O_p : dipole oscillator strength in velocity gauge
 
 --------------------------------------------------
 
 No problematic oscillator strengths above the tolerance 
  0.100000000000000       have been found
 
 
 
 
      ****************************************************************************************************
      *                                                                                                  *
      *                                         Spin-orbit section                                       *
      *                                                                                                  *
      ****************************************************************************************************
 
 
 Complex SO-Hamiltonian matrix elements over
 spin components of spin-free eigenstates (SFS):
 (In cm-1. Print threshold:   3500.000 cm-1)
 ----------------------------------------------------------------------
 
  I1  S1  MS1    I2  S2  MS2    Real part    Imag part      Absolute
     5  1.5 -1.5    1  1.5 -1.5         0.000      3829.323      3829.323
     8  1.5  1.5    4  1.5  1.5         0.000     -3829.323      3829.323
    25  0.5 -0.5    6  1.5 -0.5         0.000      4552.033      4552.033
    26  0.5  0.5    7  1.5  0.5         0.000      4552.033      4552.033
    27  0.5 -0.5    2  1.5 -0.5         0.000     -3990.442      3990.442
    28  0.5  0.5    3  1.5  0.5         0.000     -3990.442      3990.442
    37  0.5 -0.5   10  1.5 -0.5         0.000      5663.514      5663.514
    38  0.5  0.5   11  1.5  0.5         0.000      5663.514      5663.514
    39  0.5 -0.5   14  1.5 -0.5         0.000     -5873.164      5873.164
    39  0.5 -0.5   37  0.5 -0.5         0.000     -4841.521      4841.521
    40  0.5  0.5   15  1.5  0.5         0.000     -5873.164      5873.164
    40  0.5  0.5   38  0.5  0.5         0.000      4841.521      4841.521
 ----------------------------------------------------------------------
 
       Total energies including SO-coupling:
::    SO-RASSI State    1     Total energy: -30868.56734753
::    SO-RASSI State    2     Total energy: -30868.56734753
::    SO-RASSI State    3     Total energy: -30868.56463744
::    SO-RASSI State    4     Total energy: -30868.56463744
::    SO-RASSI State    5     Total energy: -30868.54262816
::    SO-RASSI State    6     Total energy: -30868.54262816
::    SO-RASSI State    7     Total energy: -30868.53705811
::    SO-RASSI State    8     Total energy: -30868.53705811
::    SO-RASSI State    9     Total energy: -30868.53538429
::    SO-RASSI State   10     Total energy: -30868.53538429
::    SO-RASSI State   11     Total energy: -30868.53325523
::    SO-RASSI State   12     Total energy: -30868.53325523
::    SO-RASSI State   13     Total energy: -30868.52754609
::    SO-RASSI State   14     Total energy: -30868.52754609
::    SO-RASSI State   15     Total energy: -30868.52428513
::    SO-RASSI State   16     Total energy: -30868.52428513
::    SO-RASSI State   17     Total energy: -30868.52215005
::    SO-RASSI State   18     Total energy: -30868.52215005
::    SO-RASSI State   19     Total energy: -30868.52036257
::    SO-RASSI State   20     Total energy: -30868.52036257
::    SO-RASSI State   21     Total energy: -30868.51287280
::    SO-RASSI State   22     Total energy: -30868.51287280
::    SO-RASSI State   23     Total energy: -30868.50555425
::    SO-RASSI State   24     Total energy: -30868.50555425
::    SO-RASSI State   25     Total energy: -30868.49892583
::    SO-RASSI State   26     Total energy: -30868.49892583
::    SO-RASSI State   27     Total energy: -30868.49516776
::    SO-RASSI State   28     Total energy: -30868.49516776
::    SO-RASSI State   29     Total energy: -30868.49148041
::    SO-RASSI State   30     Total energy: -30868.49148041
::    SO-RASSI State   31     Total energy: -30868.47968942
::    SO-RASSI State   32     Total energy: -30868.47968942
::    SO-RASSI State   33     Total energy: -30868.47765543
::    SO-RASSI State   34     Total energy: -30868.47765543
::    SO-RASSI State   35     Total energy: -30868.47466597
::    SO-RASSI State   36     Total energy: -30868.47466597
::    SO-RASSI State   37     Total energy: -30868.46542193
::    SO-RASSI State   38     Total energy: -30868.46542193
::    SO-RASSI State   39     Total energy: -30868.46331453
::    SO-RASSI State   40     Total energy: -30868.46331453
::    SO-RASSI State   41     Total energy: -30868.45587968
::    SO-RASSI State   42     Total energy: -30868.45587968
::    SO-RASSI State   43     Total energy: -30868.45446449
::    SO-RASSI State   44     Total energy: -30868.45446449
::    SO-RASSI State   45     Total energy: -30868.43888836
::    SO-RASSI State   46     Total energy: -30868.43888836
::    SO-RASSI State   47     Total energy: -30868.43336538
::    SO-RASSI State   48     Total energy: -30868.43336538
::    SO-RASSI State   49     Total energy: -30868.39023532
::    SO-RASSI State   50     Total energy: -30868.39023532
::    SO-RASSI State   51     Total energy: -30868.36929792
::    SO-RASSI State   52     Total energy: -30868.36929792
::    SO-RASSI State   53     Total energy: -30868.35698597
::    SO-RASSI State   54     Total energy: -30868.35698597
::    SO-RASSI State   55     Total energy: -30868.34082893
::    SO-RASSI State   56     Total energy: -30868.34082893
 
 
   Eigenvalues of complex Hamiltonian:
   -----------------------------------
 
  (Shifted by EVAC (a.u.) =    -30868.540335890)
 
          Relative EVac(au)    Rel lowest level(eV)    D:o, cm**(-1)
 
     1       -0.0270116386          0.0000000000              0.0000
     2       -0.0270116386          0.0000000000              0.0000
     3       -0.0243015519          0.0737452166            594.7953
     4       -0.0243015519          0.0737452166            594.7953
     5       -0.0022922686          0.6726483202           5425.2746
     6       -0.0022922686          0.6726483202           5425.2746
     7        0.0032777825          0.8242171316           6647.7595
     8        0.0032777825          0.8242171316           6647.7595
     9        0.0049515996          0.8697640136           7015.1199
    10        0.0049515996          0.8697640136           7015.1199
    11        0.0070806583          0.9276986509           7482.3943
    12        0.0070806583          0.9276986509           7482.3943
    13        0.0127898009          1.0830523357           8735.4063
    14        0.0127898009          1.0830523357           8735.4063
    15        0.0160507602          1.1717875561           9451.1041
    16        0.0160507602          1.1717875561           9451.1041
    17        0.0181858415          1.2298860799           9919.7003
    18        0.0181858415          1.2298860799           9919.7003
    19        0.0199733230          1.2785259272          10312.0071
    20        0.0199733230          1.2785259272          10312.0071
    21        0.0274630896          1.4823328586          11955.8209
    22        0.0274630896          1.4823328586          11955.8209
    23        0.0347816356          1.6814806380          13562.0561
    24        0.0347816356          1.6814806380          13562.0561
    25        0.0414100575          1.8618491857          15016.8265
    26        0.0414100575          1.8618491857          15016.8265
    27        0.0451681345          1.9641116683          15841.6291
    28        0.0451681345          1.9641116683          15841.6291
    29        0.0488554813          2.0644494870          16650.9082
    30        0.0488554813          2.0644494870          16650.9082
    31        0.0606464731          2.3852987163          19238.7318
    32        0.0606464731          2.3852987163          19238.7318
    33        0.0626804646          2.4406464443          19685.1413
    34        0.0626804646          2.4406464443          19685.1413
    35        0.0656699198          2.5219936624          20341.2509
    36        0.0656699198          2.5219936624          20341.2509
    37        0.0749139595          2.7735367947          22370.0831
    38        0.0749139595          2.7735367947          22370.0831
    39        0.0770213647          2.8308822124          22832.6051
    40        0.0770213647          2.8308822124          22832.6051
    41        0.0844562095          3.0331946448          24464.3649
    42        0.0844562095          3.0331946448          24464.3649
    43        0.0858713970          3.0717038567          24774.9626
    44        0.0858713970          3.0717038567          24774.9626
    45        0.1014475316          3.4955520677          28193.5290
    46        0.1014475316          3.4955520677          28193.5290
    47        0.1069705102          3.6458399712          29405.6827
    48        0.1069705102          3.6458399712          29405.6827
    49        0.1501005738          4.8194687803          38871.6375
    50        0.1501005738          4.8194687803          38871.6375
    51        0.1710379680          5.3892042959          43466.8644
    52        0.1710379680          5.3892042959          43466.8644
    53        0.1833499246          5.7242297008          46169.0265
    54        0.1833499246          5.7242297008          46169.0265
    55        0.1995069556          6.1638849070          49715.0850
    56        0.1995069556          6.1638849070          49715.0850
 
 
 Weights of the five most important spin-orbit-free states for each spin-orbit s
 tate.
 
 SO State  Total energy (au)           Spin-free states, spin, and weights
 -------------------------------------------------------------------------------
 ------------------------
    1        -0.027012       1 1.5  0.3687    2 1.5  0.2744    7 0.5  0.1055    3 1.5  0.0810    4 1.5  0.0358
    2        -0.027012       1 1.5  0.3687    2 1.5  0.2744    7 0.5  0.1055    3 1.5  0.0810    4 1.5  0.0358
    3        -0.024302       1 1.5  0.3810    2 1.5  0.2233   10 0.5  0.0918    5 0.5  0.0867    9 0.5  0.0621
    4        -0.024302       1 1.5  0.3810    2 1.5  0.2233   10 0.5  0.0918    5 0.5  0.0867    9 0.5  0.0621
    5        -0.002292       1 1.5  0.3993    2 1.5  0.3978    9 0.5  0.1021    8 0.5  0.0284   10 0.5  0.0235
    6        -0.002292       1 1.5  0.3993    2 1.5  0.3978    9 0.5  0.1021    8 0.5  0.0284   10 0.5  0.0235
    7         0.003278       8 0.5  0.2465    6 0.5  0.2464    3 1.5  0.1604    1 1.5  0.1123   15 0.5  0.0438
    8         0.003278       8 0.5  0.2465    6 0.5  0.2464    3 1.5  0.1604    1 1.5  0.1123   15 0.5  0.0438
    9         0.004952       6 0.5  0.2958    4 1.5  0.1899    1 1.5  0.1149    2 1.5  0.0611    8 0.5  0.0598
   10         0.004952       6 0.5  0.2958    4 1.5  0.1899    1 1.5  0.1149    2 1.5  0.0611    8 0.5  0.0598
   11         0.007081       5 0.5  0.4126    7 0.5  0.1461    2 1.5  0.1127    3 1.5  0.1074   11 0.5  0.0447
   12         0.007081       5 0.5  0.4126    7 0.5  0.1461    2 1.5  0.1127    3 1.5  0.1074   11 0.5  0.0447
   13         0.012790       3 1.5  0.4744    4 1.5  0.3616   10 0.5  0.0481    5 0.5  0.0231    9 0.5  0.0203
   14         0.012790       3 1.5  0.4744    4 1.5  0.3616   10 0.5  0.0481    5 0.5  0.0231    9 0.5  0.0203
   15         0.016051       4 1.5  0.2697    3 1.5  0.2154    9 0.5  0.1492    5 0.5  0.0800    7 0.5  0.0617
   16         0.016051       4 1.5  0.2697    3 1.5  0.2154    9 0.5  0.1492    5 0.5  0.0800    7 0.5  0.0617
   17         0.018186       2 1.5  0.5337    1 1.5  0.3225    7 0.5  0.0328   19 0.5  0.0223   11 0.5  0.0192
   18         0.018186       2 1.5  0.5337    1 1.5  0.3225    7 0.5  0.0328   19 0.5  0.0223   11 0.5  0.0192
   19         0.019973       7 0.5  0.2186    8 0.5  0.1646    5 0.5  0.1154    3 1.5  0.0974    4 1.5  0.0893
   20         0.019973       7 0.5  0.2186    8 0.5  0.1646    5 0.5  0.1154    3 1.5  0.0974    4 1.5  0.0893
   21         0.027463       4 1.5  0.2935    3 1.5  0.1351    8 0.5  0.1088   13 0.5  0.0844    7 0.5  0.0810
   22         0.027463       4 1.5  0.2935    3 1.5  0.1351    8 0.5  0.1088   13 0.5  0.0844    7 0.5  0.0810
   23         0.034782      11 0.5  0.1645    3 1.5  0.1404   12 0.5  0.1262    9 0.5  0.1002   14 0.5  0.0731
   24         0.034782      11 0.5  0.1645    3 1.5  0.1404   12 0.5  0.1262    9 0.5  0.1002   14 0.5  0.0731
   25         0.041410      10 0.5  0.2423    4 1.5  0.1178    8 0.5  0.1173    2 1.5  0.1145    7 0.5  0.0874
   26         0.041410      10 0.5  0.2423    4 1.5  0.1178    8 0.5  0.1173    2 1.5  0.1145    7 0.5  0.0874
   27         0.045168       9 0.5  0.2092   12 0.5  0.1296    6 0.5  0.0933   14 0.5  0.0904    7 0.5  0.0792
   28         0.045168       9 0.5  0.2092   12 0.5  0.1296    6 0.5  0.0933   14 0.5  0.0904    7 0.5  0.0792
   29         0.048855      13 0.5  0.2942    4 1.5  0.1525    3 1.5  0.1452   11 0.5  0.0696   18 0.5  0.0472
   30         0.048855      13 0.5  0.2942    4 1.5  0.1525    3 1.5  0.1452   11 0.5  0.0696   18 0.5  0.0472
   31         0.060646      11 0.5  0.2592   14 0.5  0.1473   13 0.5  0.1200    4 1.5  0.0848    3 1.5  0.0622
   32         0.060646      11 0.5  0.2592   14 0.5  0.1473   13 0.5  0.1200    4 1.5  0.0848    3 1.5  0.0622
   33         0.062680      12 0.5  0.5267   11 0.5  0.2494   16 0.5  0.0399   14 0.5  0.0387    7 0.5  0.0235
   34         0.062680      12 0.5  0.5267   11 0.5  0.2494   16 0.5  0.0399   14 0.5  0.0387    7 0.5  0.0235
   35         0.065670      15 0.5  0.3620   16 0.5  0.2299    3 1.5  0.1043    4 1.5  0.0895   14 0.5  0.0523
   36         0.065670      15 0.5  0.3620   16 0.5  0.2299    3 1.5  0.1043    4 1.5  0.0895   14 0.5  0.0523
   37         0.074914      18 0.5  0.4759   13 0.5  0.2539   14 0.5  0.0678   20 0.5  0.0600   10 0.5  0.0378
   38         0.074914      18 0.5  0.4759   13 0.5  0.2539   14 0.5  0.0678   20 0.5  0.0600   10 0.5  0.0378
   39         0.077021      18 0.5  0.1904   17 0.5  0.1686   10 0.5  0.1225   13 0.5  0.1136    9 0.5  0.0978
   40         0.077021      18 0.5  0.1904   17 0.5  0.1686   10 0.5  0.1225   13 0.5  0.1136    9 0.5  0.0978
   41         0.084456      17 0.5  0.4564   14 0.5  0.2654   18 0.5  0.0895   20 0.5  0.0801    4 1.5  0.0301
   42         0.084456      17 0.5  0.4564   14 0.5  0.2654   18 0.5  0.0895   20 0.5  0.0801    4 1.5  0.0301
   43         0.085871      19 0.5  0.4414   20 0.5  0.3233   17 0.5  0.0695   15 0.5  0.0371   18 0.5  0.0358
   44         0.085871      19 0.5  0.4414   20 0.5  0.3233   17 0.5  0.0695   15 0.5  0.0371   18 0.5  0.0358
   45         0.101448      16 0.5  0.3641   15 0.5  0.3014   20 0.5  0.0824    4 1.5  0.0547    3 1.5  0.0439
   46         0.101448      16 0.5  0.3641   15 0.5  0.3014   20 0.5  0.0824    4 1.5  0.0547    3 1.5  0.0439
   47         0.106971      20 0.5  0.3999   19 0.5  0.3845   23 0.5  0.0410   16 0.5  0.0349   14 0.5  0.0303
   48         0.106971      20 0.5  0.3999   19 0.5  0.3845   23 0.5  0.0410   16 0.5  0.0349   14 0.5  0.0303
   49         0.150101      21 0.5  0.6902   22 0.5  0.2628   18 0.5  0.0085   14 0.5  0.0063   16 0.5  0.0061
   50         0.150101      21 0.5  0.6902   22 0.5  0.2628   18 0.5  0.0085   14 0.5  0.0063   16 0.5  0.0061
   51         0.171038      23 0.5  0.4931   24 0.5  0.3855   22 0.5  0.0415   20 0.5  0.0219   19 0.5  0.0219
   52         0.171038      23 0.5  0.4931   24 0.5  0.3855   22 0.5  0.0415   20 0.5  0.0219   19 0.5  0.0219
   53         0.183350      22 0.5  0.6736   21 0.5  0.2635   23 0.5  0.0352   24 0.5  0.0186   17 0.5  0.0021
   54         0.183350      22 0.5  0.6736   21 0.5  0.2635   23 0.5  0.0352   24 0.5  0.0186   17 0.5  0.0021
   55         0.199507      24 0.5  0.5582   23 0.5  0.4202   16 0.5  0.0060   15 0.5  0.0048    4 1.5  0.0028
   56         0.199507      24 0.5  0.5582   23 0.5  0.4202   16 0.5  0.0060   15 0.5  0.0048    4 1.5  0.0028
 -------------------------------------------------------------------------------
 ------------------------
 
 
      ****************************************************************************************************
      *                                                                                                  *
      *                                    Special properties section                                    *
      *                                                                                                  *
      ****************************************************************************************************
 
 
 
 --------------------------------------------------
 
 A comparison between the dipole oscillator strengths in 
 length and velocity gauge will be performed
 
 All dipole oscillator differences above the tolerance of 
  0.100000000000000       will be printed 
 
 Due to basis set deficiency these oscillator may be problematic 
 
 The tolerance is defined as ABS(1-O_l/O_v) 
 O_l : dipole oscillator strength in length gauge
 O_p : dipole oscillator strength in velocity gauge
 
 --------------------------------------------------
 
 No problematic oscillator strengths above the tolerance 
  0.100000000000000       have been found
 
 ###############################################################################
 ###############################################################################
 ###                                                                         ###
 ###                                                                         ###
 ###    RunFile label nBas                                                   ###
 ###    was used    10840 times                                              ###
 ###                                                                         ###
 ###                                                                         ###
 ###############################################################################
 ###############################################################################
--- Stop Module: rassi at Sun Nov 18 02:40:45 2018 /rc=_RC_ALL_IS_WELL_ ---
*** files: PuO2_CH3SO2_CH3SO2-m1-quartet.rassi-SO-casscf-xmscaspt2.VTZP.rassi.h5 xmldump
    saved to directory /home/vallet/John-methylsulfonyl/PuO2_CH3SO2_CH3SO2-m1/optg-freq-pbe0/SO-XMS
--- Module rassi spent 39 seconds ---

    Timing: Wall=32793.20 User=144167.42 System=7284.12
