   This run of MOLCAS is using the pymolcas driver

                             OPE
                             OPE          NMOL  CASOP  ENMOLC A   SO
                 OPE        NMOLC        AS  OP EN  MO LC     AS  OP
                OPENM       OL CA        SO  PE NM  OL CA     SOP EN
                OP EN      MO   LC       AS  OP ENMOL  CASO   PENMOL
                OP  EN     MO   LC       AS  OP EN     MO     LC ASO
               OP   E  NMOL  C  AS       OP  EN MO     LC     AS  OP
               OP  E   NMO   LC AS        OPEN  MO     LCASOP EN   M
               O  PEN   MO  LCA  SO
            OPE   NMO   L   CAS    OP
        OPENMOL  CASOP     ENMOL   CASOPE
     OPENMOLCA   SOPENMOLCASOPEN   MOLCASOPE
    OPENMOLCAS   OP           EN   MOL    CAS
    OPENMOLCAS       OP  ENM        O     LCA
    OPENMOLCAS    OPEN  MOLCASO     P  E  NMO
    OPENMOLCAS     OP               E  N  MOL
    OPENMOLCA   SO           PENM   O  L  CAS    OPEN    MO    LCAS
    OPENMOLCA   SOP           ENM   O  L  CAS   OP  EN  MOLC  AS   O
    OPENMOLCA   SOPE           NM      O  LCA   S      OP  EN MO
    OPENMOLC                AS         O  PEN   M      OL  CA  SOPE
    OPENMO        LCASOPE  NMOL        C  ASO   P      ENMOLC     AS
    OPE     NMO      LCA  SO     P     E   NM   OL  CA SO  PE N   MO
          OPENMOLCA            SOPE   NMO        LCAS  O    P  ENMO
     OPENMOLCASOPENMOLCASOPENMOLCASOPENMOLCA
        OPENMOLCASOPENMOLCASOPENMOLCASOPE
            OPENMOLCASOPENMOLCASOPENM
               OPENMOLCASOPENMOLCA        version: 18.09
                   OPENMOLCASO
                       OPE                tag: 50-g6d6e5e5-dirty

 OpenMolcas is free software; you can redistribute it and/or modify it
 under the terms of the GNU Lesser General Public License version 2.1.
 OpenMolcas is distributed in the hope that it will be useful, but it
 is provided "as is" and without any express or implied warranties.
 For more details see the full text of the license in the file
 LICENSE or in <http://www.gnu.org/licenses/>.

                 Copyright (C) The OpenMolcas Authors
           For the author list and the recommended citation,
                   consult the file CONTRIBUTORS.md

           *************************************************
           * pymolcas version py2.04                       *
           *   build 3b3f1139d1f9af0cd96dc01c0ce9d5c0      *
           *   (after the EMIL interpreter by V. Veryazov) *
           *************************************************

configuration info
------------------
C Compiler ID: Intel
C flags: -std=gnu99 -qopenmp
Fortran Compiler ID: Intel
Fortran flags: -fpp -i8 -r8 -heap-arrays -qopenmp
Definitions: _MOLCAS_;_I8_;_LINUX_;_MKL_;_FDE_
Parallel: OFF (GA=OFF)


   ----------------------------------------------------------------------------------------------------------
  |
  |           Project: PuO2_CH3SO2_CH3SO2-m1-quartet.casscf.MB
  |    Submitted from: /home/vallet/John-methylsulfonyl/PuO2_CH3SO2_CH3SO2-m1/optg-freq-pbe0/SO-XMS
  |      Scratch area: /state/partition1/vallet/499054.phlam-s-sakura/PuO2_CH3SO2_CH3SO2-m1-quartet.casscf.MB
  |   Save outputs to: /home/vallet/John-methylsulfonyl/PuO2_CH3SO2_CH3SO2-m1/optg-freq-pbe0/SO-XMS
  |            Molcas: /home/pcmt/OpenMolcas/OpenMolcas-20181005
  |
  | Scratch area is empty
  |
  |    MOLCAS_DRIVER = /home/pcmt/OpenMolcas/OpenMolcas-20181005/sbin/pymolcas
  |   MOLCAS_LICENSE = /home/pcmt/molcas/license
  |    MOLCAS_MOLDEN = ON
  |    MOLCAS_NPROCS = 1
  |    MOLCAS_SOURCE = /home/pcmt/OpenMolcas/OpenMolcas-20181005
  | MOLCAS_STRUCTURE = 0
  |
   ----------------------------------------------------------------------------------------------------------

++ ---------   Input file   ---------

&GATEWAY
   COORD=$HomeDir/PuO2_CH3SO2_CH3SO2-m1-quartet.pbe0.optg-zaxis.xyz
   BASIS=ANO-RCC-MB
   Group=Nosym
   ANGM=0.0 0.0 0.0
   RICD

>>> COPY $Project.RunFile $HomeDir

&SEWARD

&RASSCF
   Spin=4
   Symmetry=1
   Nactel=3 0 0
   Inactive=95
   Ras2=4
   CIRoots=4 4 1

>>> COPY $Project.RasOrb $HomeDir/$Project.RasOrb_quartets

>>> COPY $Project.rasscf.molden $HomeDir/$Project.rasscf_quartets.molden

&RASSCF
   Spin=2
   Symmetry=1
   Nactel=3 0 0
   Inactive=95
   Ras2=4
   CIRoots=20 20 1

>>> COPY $Project.RasOrb $HomeDir/$Project.RasOrb_doublets

>>> COPY $Project.rasscf.molden $HomeDir/$Project.rasscf_doublets.molden

-- ----------------------------------

--- Start Module: gateway at Fri Nov 16 15:53:56 2018 ---
 
()()()()()()()()()()()()()()()()()()()()()()()()()()()()()()()()()()()()()()()()()()()()()()()()()()

                                              &GATEWAY

                                   only a single process is used
                       available to each process: 16 GB of memory, 8 threads
()()()()()()()()()()()()()()()()()()()()()()()()()()()()()()()()()()()()()()()()()()()()()()()()()()
 
 
++    Symmetry information:
      ---------------------
 
                    Character Table for C1 
 
                             E  
                    a        1  x, y, xy, Rz, z, xz, Ry, yz, Rx, I
--
 
 
++    Basis set information:
      ----------------------
 
 
      Basis set label: C.ANO-RCC...2S1P.
 
      Electronic valence basis set:
      ------------------
      Associated Effective Charge   6.000000 au
      Associated Actual Charge      6.000000 au
      Nuclear Model: Point charge
 
      Shell  nPrim  nBasis  Cartesian Spherical Contaminant
         s      14       2        X                  
         p       9       1        X                  
 
 
      Basis set label: S.ANO-RCC...3S2P.
 
      Electronic valence basis set:
      ------------------
      Associated Effective Charge  16.000000 au
      Associated Actual Charge     16.000000 au
      Nuclear Model: Point charge
 
      Shell  nPrim  nBasis  Cartesian Spherical Contaminant
         s      17       3        X                  
         p      12       2        X                  
 
 
      Basis set label: O.ANO-RCC...2S1P.
 
      Electronic valence basis set:
      ------------------
      Associated Effective Charge   8.000000 au
      Associated Actual Charge      8.000000 au
      Nuclear Model: Point charge
 
      Shell  nPrim  nBasis  Cartesian Spherical Contaminant
         s      14       2        X                  
         p       9       1        X                  
 
 
      Basis set label: PU.ANO-RCC...7S6P4D2F.
 
      Electronic valence basis set:
      ------------------
      Associated Effective Charge  94.000000 au
      Associated Actual Charge     94.000000 au
      Nuclear Model: Point charge
 
      Shell  nPrim  nBasis  Cartesian Spherical Contaminant
         s      26       7        X                  
         p      23       6        X                  
         d      17       4                 X         
         f      13       2                 X         
 
 
      Basis set label: O.ANO-RCC...2S1P.
 
      Electronic valence basis set:
      ------------------
      Associated Effective Charge   8.000000 au
      Associated Actual Charge      8.000000 au
      Nuclear Model: Point charge
 
      Shell  nPrim  nBasis  Cartesian Spherical Contaminant
         s      14       2        X                  
         p       9       1        X                  
 
 
      Basis set label: S.ANO-RCC...3S2P.
 
      Electronic valence basis set:
      ------------------
      Associated Effective Charge  16.000000 au
      Associated Actual Charge     16.000000 au
      Nuclear Model: Point charge
 
      Shell  nPrim  nBasis  Cartesian Spherical Contaminant
         s      17       3        X                  
         p      12       2        X                  
 
 
      Basis set label: C.ANO-RCC...2S1P.
 
      Electronic valence basis set:
      ------------------
      Associated Effective Charge   6.000000 au
      Associated Actual Charge      6.000000 au
      Nuclear Model: Point charge
 
      Shell  nPrim  nBasis  Cartesian Spherical Contaminant
         s      14       2        X                  
         p       9       1        X                  
 
 
      Basis set label: O.ANO-RCC...2S1P.
 
      Electronic valence basis set:
      ------------------
      Associated Effective Charge   8.000000 au
      Associated Actual Charge      8.000000 au
      Nuclear Model: Point charge
 
      Shell  nPrim  nBasis  Cartesian Spherical Contaminant
         s      14       2        X                  
         p       9       1        X                  
 
 
      Basis set label: H.ANO-RCC...1S.
 
      Electronic valence basis set:
      ------------------
      Associated Effective Charge   1.000000 au
      Associated Actual Charge      1.000000 au
      Nuclear Model: Point charge
 
      Shell  nPrim  nBasis  Cartesian Spherical Contaminant
         s       8       1        X                  
--
 
 
++    Molecular structure info:
      -------------------------
 
                    ************************************************ 
                    **** Cartesian Coordinates / Bohr, Angstrom **** 
                    ************************************************ 
 
     Center  Label                x              y              z                     x              y              z
        1      C1               0.009392       6.513357      -3.704203              0.004970       3.446720      -1.960180
        2      S2               0.012434       5.856148      -0.334576              0.006580       3.098940      -0.177050
        3      O3               2.333207       4.144528      -0.082090              1.234680       2.193190      -0.043440
        4      O4              -2.315292       4.154827      -0.076458             -1.225200       2.198640      -0.040460
        5      PU5              0.000000       0.000000       0.000000              0.000000       0.000000       0.000000
        6      O6              -0.001247       0.000000      -3.324274             -0.000660       0.000000      -1.759130
        7      O7              -2.328275      -4.148327       0.080880             -1.232070      -2.195200       0.042800
        8      S8              -0.004932      -5.856148       0.334841             -0.002610      -3.098940       0.177190
        9      C9              -0.002665      -6.513054       3.704525             -0.001410      -3.446560       1.960350
       10      O10              0.000000       0.000000       3.324274              0.000000       0.000000       1.759130
       11      O11              2.320244      -4.151067       0.077913              1.227820      -2.196650       0.041230
       12      H12              1.696388      -7.589594       4.153032              0.897690      -4.016240       2.197690
       13      H13             -0.007540      -4.686521       4.659271             -0.003990      -2.480000       2.465580
       14      H14             -1.695179      -7.599420       4.154128             -0.897050      -4.021440       2.198270
       15      H15              1.707972       7.589254      -4.155980              0.903820       4.016060      -2.199250
       16      H16              0.001833       4.686899      -4.659082              0.000970       2.480200      -2.465480
       17      H17             -1.683576       7.600403      -4.150368             -0.890910       4.021960      -2.196280
 
                    ************************************************* 
                    **** InterNuclear Distances / Bohr, Angstrom **** 
                    ************************************************* 
 
     Atom centers         Bohr        Angstrom
   12 H12       9 C9      2.060784        1.090520
   15 H15       1 C1    
   17 H17       1 C1    
   14 H14       9 C9      2.060810        1.090534
   13 H13       9 C9      2.061017        1.090643
   16 H16       1 C1    
    8 S8        7 O7      2.894662        1.531789
    3 O3        2 S2      2.894715        1.531817
    4 O4        2 S2    
   11 O11       8 S8      2.894781        1.531852
    6 O6        5 PU5     3.324274        1.759130
   10 O10       5 PU5   
   14 H14      12 H12     3.391571        1.794742
   17 H17      15 H15   
   13 H13      12 H12     3.404039        1.801340
   16 H16      15 H15     3.404069        1.801356
   17 H17      16 H16     3.404100        1.801372
   14 H14      13 H13     3.404156        1.801402
    2 S2        1 C1      3.433118        1.816728
    9 C9        8 S8    
   16 H16       2 S2      4.479800        2.370608
   13 H13       8 S8      4.479814        2.370615
   12 H12       8 S8      4.525253        2.394661
   17 H17       2 S2      4.525389        2.394733
   15 H15       2 S2      4.525664        2.394878
   14 H14       8 S8      4.525803        2.394952
    4 O4        3 O3      4.648514        2.459888
   11 O11       7 O7    
   11 O11       5 PU5     4.756149        2.516846
    5 PU5       3 O3      4.756859        2.517222
    5 PU5       4 O4      4.756997        2.517294
    7 O7        5 PU5     4.757733        2.517684
   13 H13      10 O10     4.872961        2.578660
   16 H16       6 O6      4.873268        2.578822
   11 O11       9 C9      4.911944        2.599289
    4 O4        1 C1      4.911960        2.599297
    3 O3        1 C1      4.912349        2.599503
    9 C9        7 O7    
   13 H13       7 O7      5.161117        2.731145
   16 H16       4 O4      5.162617        2.731939
   16 H16       3 O3      5.165107        2.733257
   13 H13      11 O11     5.166636        2.734066
   12 H12      11 O11     5.368357        2.840812
   15 H15       3 O3      5.371558        2.842506
   17 H17       4 O4      5.372876        2.843203
   14 H14       7 O7      5.376077        2.844898
--
 
 
            Nuclear Potential Energy           2539.26188288 au
 
--- Stop Module: gateway at Fri Nov 16 15:54:55 2018 /rc=_RC_ALL_IS_WELL_ ---
*** files: PuO2_CH3SO2_CH3SO2-m1-quartet.casscf.MB.RICDLib xmldump
    saved to directory /home/vallet/John-methylsulfonyl/PuO2_CH3SO2_CH3SO2-m1/optg-freq-pbe0/SO-XMS
--- Module gateway spent 58 seconds ---

>>> COPY PuO2_CH3SO2_CH3SO2-m1-quartet.casscf.MB.RunFile /home/vallet/John-methylsulfonyl/PuO2_CH3SO2_CH3SO2-m1/optg-freq-pbe0/SO-XMS

--- Start Module: seward at Fri Nov 16 15:54:55 2018 ---
 
()()()()()()()()()()()()()()()()()()()()()()()()()()()()()()()()()()()()()()()()()()()()()()()()()()

                                              &SEWARD

                                   only a single process is used
                       available to each process: 16 GB of memory, 8 threads
()()()()()()()()()()()()()()()()()()()()()()()()()()()()()()()()()()()()()()()()()()()()()()()()()()
 
               SEWARD will generate:
                  Multipole Moment integrals up to order  2
                  Kinetic Energy integrals
                  Nuclear Attraction integrals (point charge)
                  One-Electron Hamiltonian integrals
                  Velocity integrals
                  Relativistic Douglas-Kroll-Hess integrals:
                    - Parametrization         : EXP
                    - DKH order of Hamiltonian: 2
                    - DKH order of Properties : 0
                         - multipole moment operators
                         - electric potential operators
                         - contact operators
                  Orbital angular momentum around ( 0.0000  0.0000  0.0000 )
                  Atomic mean-field integrals
                  RI decomposed two-electron repulsion integrals stored Cholesky style
                   - acCD auxiliary basis
                   - CD Threshold:   0.10E-03
 
                   Integrals are discarded if absolute value <: 0.10E-13
                   Integral cutoff threshold is set to       <: 0.10E-15
 
            Nuclear Potential Energy           2539.26188288 au
 
 
      Basis set specifications :
      Symmetry species         a  
      Basis functions          123
 
 
  Input file to MOLDEN was generated!
 
--- Stop Module: seward at Fri Nov 16 15:55:16 2018 /rc=_RC_ALL_IS_WELL_ ---
*** files: PuO2_CH3SO2_CH3SO2-m1-quartet.casscf.MB.GssOrb PuO2_CH3SO2_CH3SO2-m1-quartet.casscf.MB.guessorb.h5 PuO2_CH3SO2_CH3SO2-m1-quartet.casscf.MB.guessorb.molden xmldump
    saved to directory /home/vallet/John-methylsulfonyl/PuO2_CH3SO2_CH3SO2-m1/optg-freq-pbe0/SO-XMS
--- Module seward spent 20 seconds ---

*** symbolic link created: INPORB -> PuO2_CH3SO2_CH3SO2-m1-quartet.casscf.MB.GssOrb
--- Start Module: rasscf at Fri Nov 16 15:55:16 2018 ---
 
()()()()()()()()()()()()()()()()()()()()()()()()()()()()()()()()()()()()()()()()()()()()()()()()()()

                                              &RASSCF

                                   only a single process is used
                       available to each process: 16 GB of memory, 8 threads
()()()()()()()()()()()()()()()()()()()()()()()()()()()()()()()()()()()()()()()()()()()()()()()()()()
 
 
      Header of the ONEINT file:
      --------------------------
      
      Integrals generated by seward 4.2.0  , Fri Nov 16 15:54:55 2018
 
 
      OrdInt status: non-squared
 
 
      Cartesian coordinates in Angstrom:
      -----------------------------------------------------
      No.  Label        X            Y            Z        
      -----------------------------------------------------
       1   C1         0.00497000   3.44672000  -1.96018000
       2   S2         0.00658000   3.09894000  -0.17705000
       3   O3         1.23468000   2.19319000  -0.04344000
       4   O4        -1.22520000   2.19864000  -0.04046000
       5   PU5        0.00000000   0.00000000   0.00000000
       6   O6        -0.00066000   0.00000000  -1.75913000
       7   O7        -1.23207000  -2.19520000   0.04280000
       8   S8        -0.00261000  -3.09894000   0.17719000
       9   C9        -0.00141000  -3.44656000   1.96035000
      10   O10        0.00000000   0.00000000   1.75913000
      11   O11        1.22782000  -2.19665000   0.04123000
      12   H12        0.89769000  -4.01624000   2.19769000
      13   H13       -0.00399000  -2.48000000   2.46558000
      14   H14       -0.89705000  -4.02144000   2.19827000
      15   H15        0.90382000   4.01606000  -2.19925000
      16   H16        0.00097000   2.48020000  -2.46548000
      17   H17       -0.89091000   4.02196000  -2.19628000
      -----------------------------------------------------
      Nuclear repulsion energy = 2539.26188288
 
++    Wave function specifications:
      -----------------------------
 
      Number of closed shell electrons         190
      Number of electrons in active shells       3
      Max number of holes in RAS1 space          0
      Max nr of electrons in RAS3 space          0
      Number of inactive orbitals               95
      Number of active orbitals                  4
      Number of secondary orbitals              24
      Spin quantum number                      1.5
      State symmetry                             1
--
 
++    Orbital specifications:
      -----------------------
 
      Symmetry species                           1
                                                 a
      Frozen orbitals                            0
      Inactive orbitals                         95
      Active orbitals                            4
      RAS1 orbitals                              0
      RAS2 orbitals                              4
      RAS3 orbitals                              0
      Secondary orbitals                        24
      Deleted orbitals                           0
      Number of basis functions                123
--
 
++    CI expansion specifications:
      ----------------------------
 
      Number of CSFs                             4
      Number of determinants                     4
      Number of root(s) required                 4
      Root chosen for geometry opt.              4
      CI roots used                              1     2     3     4
      weights                                0.250 0.250 0.250 0.250
      highest root included in the CI            4
      max. size of the explicit Hamiltonian      4
--
 
++    Optimization specifications:
      ----------------------------
 
      RASSCF algorithm: LK RI/DF
      Maximum number of macro iterations       200
      Maximum number of SX iterations          100
      Threshold for RASSCF energy            0.100E-07
      Threshold for max MO rotation          0.100E+00
      Threshold for max BLB element          0.100E-03
      Level shift parameter                  0.500E+00
      Make Quasi-Newton update
--
 
      Orbitals from runfile: guessorb orbitals
      The MO-coefficients are taken from guessorb on runfile
 
      Total molecular charge   -1.00
 
      ************************************************************************************************************************
      *                                                                                                                      *
      *                                            Wave function control section                                             *
      *                                                                                                                      *
      ************************************************************************************************************************
 
 
                                         RASSCF iterations: Energy and convergence statistics
                                         ----------------------------------------------------
 
      Iter CI   SX   CI       RASSCF       Energy    max ROT     max BLB   max BLB  Level Ln srch  Step   QN   Walltime
          iter iter root      energy       change     param      element    value   shift minimum  type update hh:mm:ss
 Nr of preliminary CI iterations:   1
      Total energies have been shifted. Add               -30000.00 au
        1   1   10    0  -857.89103722    0.00E+00  -0.16E+00*  91 102 1 -0.83E+00*  2.72   0.00    SX    NO    0:00:02
        2   1   11    0  -859.83192217   -0.19E+01*  0.25E+00*  91 102 1 -0.52E+00*  2.32   0.00    SX    NO    0:00:01
        3   1   11    0  -861.12871204   -0.13E+01*  0.22E+00*  99 101 1  0.37E+00*  1.91   0.00    SX    NO    0:00:01
        4   1   11    0  -861.92979297   -0.80E+00*  0.15E+00*  99 101 1  0.27E+00*  1.60   0.00    SX    NO    0:00:01
        5   1   11    0  -862.38877406   -0.46E+00*  0.13E+00*  80 100 1  0.20E+00*  1.40   2.50    QN   YES    0:00:01
        6   1   10    0  -862.76479621   -0.38E+00* -0.15E+00*  94  99 1 -0.20E+00*  1.21   2.34    QN   YES    0:00:01
        7   1    9    0  -863.02708891   -0.26E+00* -0.16E+00*  94  99 1 -0.21E+00*  1.05   2.10    QN   YES    0:00:01
        8   1    8    0  -863.20669881   -0.18E+00* -0.18E+00*  94  99 1 -0.19E+00*  0.94   2.17    QN   YES    0:00:01
        9   1    8    0  -863.35142573   -0.14E+00*  0.17E+00*  94  99 1 -0.15E+00*  0.88   2.16    QN   YES    0:00:01
       10   1    8    0  -863.46911297   -0.12E+00*  0.14E+00*  94 101 1 -0.15E+00*  0.85   1.99    QN   YES    0:00:01
       11   1    9    0  -863.56316569   -0.94E-01* -0.20E+00*  94 101 1 -0.14E+00*  0.79   2.36    QN   YES    0:00:01
       12   1    9    0  -863.66559423   -0.10E+00* -0.28E+00*  98 100 1 -0.12E+00*  0.67   2.50    QN   YES    0:00:01
       13   1   10    0  -863.77422811   -0.11E+00* -0.24E+00*  98 100 1 -0.13E+00*  0.48   1.80    QN   YES    0:00:01
       14   1   10    0  -863.85234708   -0.78E-01* -0.14E+00*  94  99 1  0.12E+00*  0.46   1.64    QN   YES    0:00:01
       15   1   10    0  -863.91782865   -0.65E-01* -0.12E+00*  94  99 1  0.97E-01*  0.45   2.40    LS   YES    0:00:01
       16   1   10    0  -863.94844204   -0.31E-01* -0.61E-01   94  99 1  0.75E-01*  0.44   1.61    QN   YES    0:00:01
       17   1   10    0  -863.98422752   -0.36E-01* -0.58E-01   94  99 1  0.39E-01*  0.43   2.34    LS   YES    0:00:01
       18   1   10    0  -864.00073908   -0.17E-01*  0.73E-01   95  98 1  0.41E-01*  0.41   1.44    QN   YES    0:00:01
       19   1   10    0  -864.02270442   -0.22E-01*  0.23E+00*  95  98 1  0.58E-01*  0.39   2.50    QN   YES    0:00:01
       20   1   10    0  -864.07734345   -0.55E-01* -0.28E+00*  95  98 1  0.89E-01*  0.30   2.00    QN   YES    0:00:01
       21   1   10    0  -864.12671638   -0.49E-01* -0.18E+00*  95  98 1  0.82E-01*  0.24   1.36    QN   YES    0:00:01
       22   1   10    0  -864.16223885   -0.36E-01* -0.14E+00*  95  97 1  0.77E-01*  0.23   1.58    QN   YES    0:00:01
       23   1   10    0  -864.20911454   -0.47E-01* -0.11E+00*  70 100 1 -0.77E-01*  0.24   1.90    QN   YES    0:00:01
       24   1    9    0  -864.27940556   -0.70E-01* -0.72E-01   70 100 1 -0.72E-01*  0.26   1.82    QN   YES    0:00:01
       25   1    9    0  -864.34232461   -0.63E-01*  0.44E-01   70 100 1 -0.47E-01*  0.27   1.84    QN   YES    0:00:01
       26   1    9    0  -864.37513643   -0.33E-01*  0.22E-01   91 101 1  0.26E-01*  0.27   1.59    LS   YES    0:00:01
       27   1    9    0  -864.38034919   -0.52E-02* -0.33E-01   91 101 1  0.20E-01*  0.27   1.19    QN   YES    0:00:01
       28   1    8    0  -864.38519645   -0.48E-02*  0.47E-01   97 100 1  0.12E-01*  0.26   1.32    QN   YES    0:00:01
       29   1    8    0  -864.38898223   -0.38E-02*  0.37E-01   94 101 1  0.85E-02*  0.27   1.39    QN   YES    0:00:01
       30   1    8    0  -864.39079122   -0.18E-02* -0.43E-01   94 101 1  0.93E-02*  0.27   1.96    QN   YES    0:00:01
       31   1    8    0  -864.39217624   -0.14E-02*  0.39E-01   94 101 1  0.64E-02*  0.27   1.68    QN   YES    0:00:01
       32   1    8    0  -864.39292738   -0.75E-03*  0.37E-01   94  99 1  0.36E-02*  0.27   1.83    QN   YES    0:00:01
       33   1    8    0  -864.39344963   -0.52E-03* -0.30E-01   94  96 1  0.32E-02*  0.27   1.79    QN   YES    0:00:01
       34   1    7    0  -864.39377083   -0.32E-03*  0.18E-01   94 101 1 -0.37E-02*  0.27   1.65    QN   YES    0:00:01
       35   1    7    0  -864.39392271   -0.15E-03*  0.89E-02   94 101 1 -0.36E-02*  0.27   1.54    QN   YES    0:00:01
       36   1    7    0  -864.39398642   -0.64E-04* -0.52E-02   94 101 1 -0.23E-02*  0.27   1.59    QN   YES    0:00:01
       37   1    7    0  -864.39402075   -0.34E-04* -0.52E-02   94 101 1 -0.86E-03*  0.27   1.78    QN   YES    0:00:01
       38   1    7    0  -864.39404567   -0.25E-04* -0.55E-02   91 101 1 -0.81E-03*  0.27   1.86    QN   YES    0:00:01
       39   1    7    0  -864.39406292   -0.17E-04*  0.42E-02   94 101 1  0.89E-03*  0.27   1.66    QN   YES    0:00:01
       40   1    6    0  -864.39407211   -0.92E-05*  0.24E-02   94 101 1  0.78E-03*  0.27   1.52    QN   YES    0:00:01
       41   1    6    0  -864.39407608   -0.40E-05*  0.14E-02   94 101 1  0.40E-03*  0.27   1.51    QN   YES    0:00:01
       42   1    6    0  -864.39407783   -0.18E-05*  0.21E-02   91 101 1  0.27E-03*  0.27   2.50    LS   YES    0:00:01
       43   1    6    0  -864.39407760    0.23E-06*  0.83E-03   91 101 1  0.45E-03*  0.27   0.44    LS   YES    0:00:01
       44   1    6    0  -864.39407809   -0.49E-06*  0.34E-03   91 101 1  0.38E-03*  0.27   2.50    QN   YES    0:00:01
       45   1    6    0  -864.39407893   -0.84E-06*  0.50E-03   91 101 1  0.25E-03*  0.27   2.50    LS   YES    0:00:01
       46   1    6    0  -864.39407941   -0.48E-06*  0.10E-02   94 101 1  0.16E-03*  0.27   0.95    QN   YES    0:00:01
       47   1    6    0  -864.39407977   -0.36E-06*  0.15E-02   94 101 1  0.10E-03*  0.27   2.50    LS   YES    0:00:01
       48   1    6    0  -864.39407996   -0.19E-06* -0.27E-03   83 106 1  0.15E-03*  0.27   0.87    QN   YES    0:00:01
       49   1    5    0  -864.39408014   -0.19E-06* -0.69E-03   83 106 1  0.94E-04   0.27   1.91    QN   YES    0:00:02
       50   1    5    0  -864.39408030   -0.15E-06* -0.23E-03   85 101 1  0.47E-04   0.27   1.21    QN   YES    0:00:01
       51   1    5    0  -864.39408029    0.25E-08  -0.16E-03   93 101 1 -0.33E-04   0.27   0.23    QN   YES    0:00:01
      Convergence after 51 iterations
       52   1    5    0  -864.39408029    0.26E-08  -0.16E-03   93 101 1 -0.21E-04   0.27   0.23    QN   YES    0:00:01
 
      ************************************************************************************************************************
                                                      Wave function printout:
                       occupation of active orbitals, and spin coupling of open shells (u,d: Spin up or down)
      ************************************************************************************************************************
 
      Note: transformation to natural orbitals
      has been made, which may change the order of the CSFs.
 
      printout of CI-coefficients larger than  0.05 for root  1
      energy=  -30864.418001
      conf/sym  1111     Coeff  Weight
             1  uuu0   0.47305 0.22378
             2  uu0u   0.53708 0.28846
             3  u0uu   0.58890 0.34681
             4  0uuu   0.37544 0.14096
 
      printout of CI-coefficients larger than  0.05 for root  2
      energy=  -30864.408809
      conf/sym  1111     Coeff  Weight
             1  uuu0  -0.76359 0.58306
             3  u0uu   0.64306 0.41353
             4  0uuu  -0.05782 0.00334
 
      printout of CI-coefficients larger than  0.05 for root  3
      energy=  -30864.380200
      conf/sym  1111     Coeff  Weight
             1  uuu0  -0.37674 0.14194
             2  uu0u   0.16106 0.02594
             3  u0uu  -0.37454 0.14028
             4  0uuu   0.83177 0.69184
 
      printout of CI-coefficients larger than  0.05 for root  4
      energy=  -30864.369311
      conf/sym  1111     Coeff  Weight
             1  uuu0  -0.22632 0.05122
             2  uu0u   0.82797 0.68554
             3  u0uu  -0.31525 0.09938
             4  0uuu  -0.40479 0.16386
 
      Natural orbitals and occupation numbers for root  1
      sym 1:   1.000000   0.000000   1.000000   1.000000
 
      Natural orbitals and occupation numbers for root  2
      sym 1:   1.000000   1.000000   1.000000   0.000000
 
      Natural orbitals and occupation numbers for root  3
      sym 1:   0.000000   1.000000   1.000000   1.000000
 
      Natural orbitals and occupation numbers for root  4
      sym 1:   1.000000   1.000000   0.000000   1.000000
 
      ************************************************************************************************************************
      *                                                                                                                      *
      *                                                    Final results                                                     *
      *                                                                                                                      *
      ************************************************************************************************************************
 
 
++    Wave function specifications:
      -----------------------------
 
      Number of closed shell electrons         190
      Number of electrons in active shells       3
      Max number of holes in RAS1 space          0
      Max nr of electrons in RAS3 space          0
      Number of inactive orbitals               95
      Number of active orbitals                  4
      Number of secondary orbitals              24
      Spin quantum number                      1.5
      State symmetry                             1
--
 
++    Orbital specifications:
      -----------------------
 
      Symmetry species                           1
                                                 a
      Frozen orbitals                            0
      Inactive orbitals                         95
      Active orbitals                            4
      RAS1 orbitals                              0
      RAS2 orbitals                              4
      RAS3 orbitals                              0
      Secondary orbitals                        24
      Deleted orbitals                           0
      Number of basis functions                123
--
 
++    CI expansion specifications:
      ----------------------------
 
      Number of CSFs                             4
      Number of determinants                     4
      Number of root(s) required                 4
      CI roots used                              1     2     3     4
      weights                                0.250 0.250 0.250 0.250
      highest root included in the CI            4
      Root passed to geometry opt.               4
--
 
++    Final optimization conditions:
      ------------------------------
 
      Average CI energy                          -30864.39408026
      RASSCF energy for state  4                 -30864.36931141
      Super-CI energy                                -0.00000001
      RASSCF energy change                            0.00000000
      Max change in MO coefficients               0.164E-03
      Max non-diagonal density matrix element    -0.164E-03
      Maximum BLB matrix element                 -0.207E-04
      (orbital pair  93, 101 in symmetry   1)
      Norm of electronic gradient            0.565E-01
--
 
 
      Final state energy(ies):
      ------------------------
 
::    RASSCF root number  1 Total energy: -30864.41800054
::    RASSCF root number  2 Total energy: -30864.40880867
::    RASSCF root number  3 Total energy: -30864.38020042
::    RASSCF root number  4 Total energy: -30864.36931141
 
++    Molecular orbitals:
      -------------------
 
      Pseudonatural active orbitals and approximate occupation numbers
 
 
 
 
      Molecular orbitals for symmetry species 1: a  
 
 
      Orbital                1         2         3         4         5         6         7         8         9        10
      Energy        -4488.4664 -854.2004 -711.9105 -711.9087 -711.9084 -220.5668 -180.5422 -180.5417 -180.5406 -143.8034
      Occ. No.          2.0000    2.0000    2.0000    2.0000    2.0000    2.0000    2.0000    2.0000    2.0000    2.0000
 
    1 C1     1s        -0.0000   -0.0000    0.0000   -0.0000    0.0000   -0.0000    0.0000   -0.0000    0.0000    0.0000
    2 C1     2s        -0.0000   -0.0000    0.0000    0.0000    0.0000   -0.0000    0.0000    0.0000    0.0000    0.0000
    3 C1     2px       -0.0000   -0.0000   -0.0000    0.0000    0.0000   -0.0000   -0.0000    0.0000    0.0000   -0.0000
    4 C1     2py        0.0000    0.0000    0.0000   -0.0000   -0.0000    0.0000    0.0000   -0.0000   -0.0000    0.0000
    5 C1     2pz       -0.0000   -0.0000   -0.0000    0.0000   -0.0000   -0.0000   -0.0000    0.0000   -0.0000   -0.0000
    6 S2     1s        -0.0000   -0.0000    0.0000    0.0000    0.0000   -0.0000    0.0000    0.0000    0.0000   -0.0000
    7 S2     2s        -0.0000   -0.0000    0.0000    0.0000    0.0000   -0.0000    0.0000    0.0000    0.0000   -0.0000
    8 S2     3s        -0.0000   -0.0000    0.0000    0.0000    0.0000   -0.0000    0.0000    0.0000    0.0000   -0.0000
    9 S2     2px       -0.0000   -0.0000    0.0000   -0.0000    0.0000   -0.0000   -0.0000   -0.0000    0.0000    0.0000
   10 S2     3px       -0.0000   -0.0000    0.0000   -0.0000   -0.0000   -0.0000    0.0000   -0.0000   -0.0000    0.0000
   11 S2     2py       -0.0000   -0.0000    0.0000   -0.0000   -0.0000   -0.0000   -0.0000   -0.0000   -0.0000    0.0000
   12 S2     3py       -0.0000   -0.0000   -0.0000   -0.0000   -0.0000   -0.0000   -0.0000   -0.0000   -0.0000    0.0000
   13 S2     2pz       -0.0000   -0.0000    0.0000    0.0000    0.0000   -0.0000    0.0000    0.0000    0.0000    0.0000
   14 S2     3pz       -0.0000   -0.0000    0.0000    0.0000    0.0000   -0.0000    0.0000   -0.0000    0.0000    0.0000
   15 O3     1s         0.0000    0.0000    0.0000    0.0000    0.0000    0.0000    0.0000    0.0000    0.0000   -0.0000
   16 O3     2s         0.0000    0.0000    0.0000    0.0000    0.0000    0.0000    0.0000    0.0000    0.0000   -0.0000
   17 O3     2px       -0.0000   -0.0000   -0.0000    0.0000    0.0000   -0.0000    0.0000    0.0000    0.0000   -0.0000
   18 O3     2py       -0.0000   -0.0000   -0.0000    0.0000    0.0000   -0.0000    0.0000    0.0000    0.0000    0.0000
   19 O3     2pz        0.0000    0.0000    0.0000    0.0000   -0.0000    0.0000    0.0000    0.0000   -0.0000    0.0000
   20 O4     1s         0.0000    0.0000    0.0000    0.0000   -0.0000    0.0000    0.0000    0.0000   -0.0000   -0.0000
   21 O4     2s         0.0000    0.0000    0.0000    0.0000   -0.0000    0.0000    0.0000    0.0000   -0.0000   -0.0000
   22 O4     2px        0.0000    0.0000    0.0000   -0.0000    0.0000    0.0000   -0.0000   -0.0000    0.0000    0.0000
   23 O4     2py       -0.0000   -0.0000   -0.0000    0.0000   -0.0000   -0.0000    0.0000    0.0000   -0.0000    0.0000
   24 O4     2pz        0.0000    0.0000    0.0000    0.0000    0.0000    0.0000    0.0000    0.0000    0.0000    0.0000
   25 PU5    1s         1.0000   -0.0000    0.0000    0.0000    0.0000    0.0000   -0.0000   -0.0000   -0.0000   -0.0000
   26 PU5    2s         0.0000    1.0000   -0.0000   -0.0000    0.0000   -0.0000   -0.0000   -0.0000    0.0000   -0.0000
   27 PU5    3s        -0.0000    0.0000    0.0000    0.0000   -0.0000    1.0000   -0.0000   -0.0000    0.0000   -0.0000
   28 PU5    4s         0.0000   -0.0000    0.0000    0.0000    0.0000   -0.0000    0.0000    0.0000   -0.0000    0.0000
   29 PU5    5s        -0.0000    0.0000   -0.0000    0.0000   -0.0000   -0.0000   -0.0000    0.0000    0.0000   -0.0000
   30 PU5    6s         0.0000   -0.0000   -0.0000    0.0000    0.0000    0.0000   -0.0000    0.0000   -0.0000    0.0000
   31 PU5    7s        -0.0000    0.0000   -0.0000    0.0000    0.0000   -0.0000   -0.0000    0.0000    0.0000    0.0000
   32 PU5    2px       -0.0000   -0.0000    0.0002    0.0011    1.0000    0.0000   -0.0000   -0.0000   -0.0000   -0.0000
   33 PU5    3px        0.0000   -0.0000    0.0000    0.0000    0.0000   -0.0000    0.0001    0.0013    1.0000   -0.0000
   34 PU5    4px       -0.0000    0.0000   -0.0000   -0.0000   -0.0000   -0.0000   -0.0000   -0.0000   -0.0000   -0.0000
   35 PU5    5px        0.0000   -0.0000    0.0000    0.0000    0.0000    0.0000   -0.0000   -0.0000   -0.0000    0.0000
   36 PU5    6px       -0.0000   -0.0000   -0.0000   -0.0000   -0.0000   -0.0000    0.0000   -0.0000   -0.0000   -0.0000
   37 PU5    7px       -0.0000   -0.0000    0.0000   -0.0000    0.0000   -0.0000   -0.0000    0.0000    0.0000    0.0000
   38 PU5    2py        0.0000    0.0000    0.0088    1.0000   -0.0011   -0.0000   -0.0000   -0.0000    0.0000   -0.0000
   39 PU5    3py        0.0000    0.0000    0.0000    0.0000   -0.0000    0.0000    0.0974    0.9952   -0.0013   -0.0000
   40 PU5    4py       -0.0000   -0.0000   -0.0000   -0.0000    0.0000    0.0000   -0.0000   -0.0000    0.0000    0.0000
   41 PU5    5py       -0.0000    0.0000    0.0000    0.0000   -0.0000   -0.0000   -0.0000   -0.0000    0.0000   -0.0000
   42 PU5    6py       -0.0000   -0.0000   -0.0000   -0.0000    0.0000   -0.0000   -0.0000   -0.0000    0.0000   -0.0000
   43 PU5    7py       -0.0000   -0.0000   -0.0000   -0.0000   -0.0000   -0.0000   -0.0000    0.0000   -0.0000   -0.0000
   44 PU5    2pz       -0.0000    0.0000    1.0000   -0.0088   -0.0002   -0.0000   -0.0000    0.0000   -0.0000   -0.0000
   45 PU5    3pz        0.0000    0.0000    0.0000   -0.0000   -0.0000    0.0000    0.9952   -0.0974    0.0000   -0.0000
   46 PU5    4pz       -0.0000   -0.0000   -0.0000    0.0000    0.0000    0.0000   -0.0000    0.0000    0.0000   -0.0000
   47 PU5    5pz        0.0000    0.0000    0.0000   -0.0000   -0.0000   -0.0000   -0.0000    0.0000   -0.0000   -0.0000
   48 PU5    6pz       -0.0000    0.0000   -0.0000    0.0000    0.0000   -0.0000    0.0000   -0.0000    0.0000    0.0000
   49 PU5    7pz        0.0000    0.0000    0.0000    0.0000    0.0000    0.0000    0.0000   -0.0000    0.0000    0.0000
   50 PU5    3d2-      -0.0000    0.0000   -0.0000   -0.0000    0.0000    0.0000   -0.0000   -0.0000    0.0000    0.0002
   51 PU5    4d2-       0.0000   -0.0000    0.0000    0.0000   -0.0000    0.0000   -0.0000   -0.0000    0.0000   -0.0000
   52 PU5    5d2-      -0.0000    0.0000   -0.0000    0.0000    0.0000   -0.0000    0.0000   -0.0000   -0.0000    0.0000
   53 PU5    6d2-      -0.0000   -0.0000   -0.0000    0.0000    0.0000   -0.0000   -0.0000    0.0000    0.0000   -0.0000
   54 PU5    3d1-       0.0000    0.0000    0.0000    0.0000    0.0000    0.0000    0.0000    0.0000    0.0000    0.9998
   55 PU5    4d1-      -0.0000   -0.0000   -0.0000   -0.0000    0.0000    0.0000    0.0000    0.0000   -0.0000   -0.0000
   56 PU5    5d1-       0.0000    0.0000    0.0000    0.0000   -0.0000   -0.0000   -0.0000   -0.0000    0.0000    0.0000
   57 PU5    6d1-      -0.0000   -0.0000    0.0000   -0.0000   -0.0000   -0.0000    0.0000   -0.0000   -0.0000   -0.0000
   58 PU5    3d0        0.0000    0.0000    0.0000   -0.0000   -0.0000    0.0000    0.0000   -0.0000    0.0000    0.0064
   59 PU5    4d0       -0.0000   -0.0000   -0.0000    0.0000   -0.0000    0.0000    0.0000   -0.0000   -0.0000   -0.0000
   60 PU5    5d0        0.0000    0.0000    0.0000   -0.0000    0.0000   -0.0000   -0.0000    0.0000   -0.0000    0.0000
   61 PU5    6d0        0.0000   -0.0000   -0.0000    0.0000   -0.0000    0.0000   -0.0000    0.0000   -0.0000    0.0000
   62 PU5    3d1+       0.0000    0.0000   -0.0000    0.0000    0.0000    0.0000   -0.0000    0.0000    0.0000    0.0012
   63 PU5    4d1+      -0.0000   -0.0000    0.0000   -0.0000   -0.0000    0.0000   -0.0000    0.0000    0.0000   -0.0000
   64 PU5    5d1+       0.0000    0.0000   -0.0000   -0.0000    0.0000   -0.0000    0.0000   -0.0000   -0.0000    0.0000
   65 PU5    6d1+       0.0000    0.0000   -0.0000   -0.0000    0.0000    0.0000   -0.0000    0.0000   -0.0000   -0.0000
   66 PU5    3d2+       0.0000   -0.0000   -0.0000   -0.0000   -0.0000   -0.0000   -0.0000   -0.0000   -0.0000   -0.0193
   67 PU5    4d2+      -0.0000    0.0000    0.0000    0.0000    0.0000   -0.0000   -0.0000   -0.0000   -0.0000    0.0000
   68 PU5    5d2+       0.0000   -0.0000    0.0000   -0.0000   -0.0000    0.0000    0.0000    0.0000    0.0000   -0.0000
   69 PU5    6d2+       0.0000    0.0000    0.0000   -0.0000   -0.0000    0.0000   -0.0000   -0.0000   -0.0000   -0.0000
   70 PU5    4f3-       0.0000   -0.0000   -0.0000   -0.0000   -0.0000   -0.0000   -0.0000   -0.0000    0.0000   -0.0000
   71 PU5    5f3-       0.0000   -0.0000    0.0000    0.0000   -0.0000   -0.0000    0.0000    0.0000   -0.0000    0.0000
   72 PU5    4f2-       0.0000   -0.0000    0.0000    0.0000    0.0000   -0.0000    0.0000    0.0000    0.0000   -0.0000
   73 PU5    5f2-       0.0000    0.0000   -0.0000   -0.0000   -0.0000    0.0000   -0.0000   -0.0000   -0.0000    0.0000
   74 PU5    4f1-       0.0000   -0.0000    0.0000    0.0000   -0.0000   -0.0000    0.0000    0.0000   -0.0000    0.0000
   75 PU5    5f1-       0.0000    0.0000   -0.0000   -0.0000    0.0000    0.0000   -0.0000   -0.0000    0.0000    0.0000
   76 PU5    4f0        0.0000   -0.0000    0.0000   -0.0000   -0.0000   -0.0000   -0.0000    0.0000   -0.0000   -0.0000
   77 PU5    5f0        0.0000    0.0000    0.0000    0.0000    0.0000    0.0000    0.0000   -0.0000    0.0000    0.0000
   78 PU5    4f1+      -0.0000   -0.0000    0.0000    0.0000    0.0000   -0.0000   -0.0000    0.0000    0.0000   -0.0000
   79 PU5    5f1+      -0.0000    0.0000    0.0000   -0.0000   -0.0000   -0.0000    0.0000   -0.0000   -0.0000    0.0000
   80 PU5    4f2+       0.0000   -0.0000   -0.0000   -0.0000    0.0000   -0.0000   -0.0000   -0.0000    0.0000   -0.0000
   81 PU5    5f2+       0.0000    0.0000    0.0000   -0.0000    0.0000    0.0000    0.0000   -0.0000   -0.0000    0.0000
   82 PU5    4f3+       0.0000   -0.0000   -0.0000   -0.0000   -0.0000   -0.0000   -0.0000   -0.0000   -0.0000    0.0000
   83 PU5    5f3+       0.0000    0.0000    0.0000    0.0000    0.0000    0.0000    0.0000    0.0000    0.0000   -0.0000
   84 O6     1s         0.0000    0.0000    0.0000   -0.0000    0.0000    0.0000    0.0000   -0.0000    0.0000   -0.0000
   85 O6     2s        -0.0000    0.0000    0.0000    0.0000    0.0000   -0.0000    0.0000   -0.0000    0.0000   -0.0000
   86 O6     2px       -0.0000   -0.0000    0.0000   -0.0000   -0.0000   -0.0000    0.0000   -0.0000   -0.0000   -0.0000
   87 O6     2py        0.0000    0.0000    0.0000   -0.0000    0.0000    0.0000    0.0000   -0.0000    0.0000   -0.0000
   88 O6     2pz       -0.0000   -0.0000    0.0000    0.0000    0.0000   -0.0000    0.0000    0.0000    0.0000   -0.0000
   89 O7     1s         0.0000    0.0000   -0.0000   -0.0000   -0.0000    0.0000   -0.0000   -0.0000   -0.0000   -0.0000
   90 O7     2s         0.0000    0.0000   -0.0000   -0.0000   -0.0000    0.0000   -0.0000   -0.0000   -0.0000   -0.0000
   91 O7     2px        0.0000    0.0000   -0.0000    0.0000    0.0000    0.0000    0.0000    0.0000    0.0000    0.0000
   92 O7     2py        0.0000    0.0000   -0.0000    0.0000    0.0000    0.0000    0.0000    0.0000    0.0000   -0.0000
   93 O7     2pz       -0.0000   -0.0000    0.0000    0.0000   -0.0000   -0.0000    0.0000    0.0000   -0.0000   -0.0000
   94 S8     1s        -0.0000   -0.0000   -0.0000   -0.0000   -0.0000   -0.0000   -0.0000   -0.0000    0.0000   -0.0000
   95 S8     2s        -0.0000   -0.0000   -0.0000   -0.0000   -0.0000   -0.0000   -0.0000   -0.0000    0.0000   -0.0000
   96 S8     3s        -0.0000   -0.0000   -0.0000   -0.0000   -0.0000   -0.0000   -0.0000   -0.0000   -0.0000   -0.0000
   97 S8     2px        0.0000    0.0000    0.0000   -0.0000    0.0000    0.0000   -0.0000   -0.0000    0.0000    0.0000
   98 S8     3px        0.0000    0.0000    0.0000   -0.0000   -0.0000    0.0000    0.0000   -0.0000   -0.0000   -0.0000
   99 S8     2py        0.0000    0.0000    0.0000   -0.0000    0.0000    0.0000   -0.0000   -0.0000    0.0000   -0.0000
  100 S8     3py        0.0000    0.0000   -0.0000   -0.0000    0.0000    0.0000   -0.0000   -0.0000    0.0000   -0.0000
  101 S8     2pz        0.0000    0.0000    0.0000    0.0000    0.0000    0.0000    0.0000    0.0000    0.0000   -0.0000
  102 S8     3pz        0.0000    0.0000    0.0000    0.0000    0.0000    0.0000    0.0000   -0.0000    0.0000   -0.0000
  103 C9     1s        -0.0000   -0.0000   -0.0000    0.0000    0.0000   -0.0000   -0.0000    0.0000    0.0000    0.0000
  104 C9     2s        -0.0000   -0.0000   -0.0000   -0.0000    0.0000   -0.0000   -0.0000   -0.0000    0.0000    0.0000
  105 C9     2px       -0.0000   -0.0000    0.0000   -0.0000    0.0000   -0.0000    0.0000   -0.0000    0.0000   -0.0000
  106 C9     2py       -0.0000   -0.0000    0.0000   -0.0000    0.0000   -0.0000    0.0000   -0.0000    0.0000   -0.0000
  107 C9     2pz        0.0000    0.0000   -0.0000    0.0000    0.0000    0.0000   -0.0000    0.0000    0.0000    0.0000
  108 O10    1s         0.0000    0.0000   -0.0000    0.0000    0.0000    0.0000   -0.0000    0.0000   -0.0000   -0.0000
  109 O10    2s        -0.0000    0.0000   -0.0000   -0.0000    0.0000   -0.0000   -0.0000    0.0000   -0.0000   -0.0000
  110 O10    2px        0.0000    0.0000    0.0000   -0.0000   -0.0000    0.0000    0.0000   -0.0000   -0.0000    0.0000
  111 O10    2py       -0.0000   -0.0000    0.0000   -0.0000    0.0000   -0.0000    0.0000   -0.0000    0.0000    0.0000
  112 O10    2pz        0.0000    0.0000    0.0000    0.0000   -0.0000    0.0000    0.0000    0.0000   -0.0000    0.0000
  113 O11    1s         0.0000    0.0000   -0.0000   -0.0000    0.0000    0.0000   -0.0000   -0.0000    0.0000   -0.0000
  114 O11    2s         0.0000    0.0000   -0.0000   -0.0000    0.0000    0.0000   -0.0000   -0.0000    0.0000   -0.0000
  115 O11    2px       -0.0000   -0.0000    0.0000   -0.0000    0.0000   -0.0000   -0.0000   -0.0000    0.0000   -0.0000
  116 O11    2py        0.0000    0.0000   -0.0000    0.0000   -0.0000    0.0000    0.0000    0.0000   -0.0000   -0.0000
  117 O11    2pz       -0.0000   -0.0000    0.0000    0.0000    0.0000   -0.0000    0.0000    0.0000    0.0000   -0.0000
  118 H12    1s         0.0000    0.0000   -0.0000    0.0000   -0.0000    0.0000   -0.0000    0.0000   -0.0000    0.0000
  119 H13    1s        -0.0000   -0.0000    0.0000   -0.0000   -0.0000   -0.0000    0.0000   -0.0000   -0.0000   -0.0000
  120 H14    1s         0.0000    0.0000   -0.0000    0.0000    0.0000    0.0000   -0.0000    0.0000    0.0000    0.0000
  121 H15    1s         0.0000    0.0000    0.0000   -0.0000   -0.0000    0.0000    0.0000   -0.0000   -0.0000    0.0000
  122 H16    1s        -0.0000   -0.0000   -0.0000    0.0000   -0.0000   -0.0000   -0.0000    0.0000   -0.0000   -0.0000
  123 H17    1s         0.0000    0.0000    0.0000   -0.0000    0.0000    0.0000    0.0000   -0.0000    0.0000    0.0000
 
 
      Orbital               11        12        13        14        15        16        17        18        19        20
      Energy         -143.8028 -143.8027 -143.8021 -143.8017  -92.3945  -92.3945  -58.7159  -45.3730  -45.3691  -45.3671
      Occ. No.          2.0000    2.0000    2.0000    2.0000    2.0000    2.0000    2.0000    2.0000    2.0000    2.0000
 
    1 C1     1s        -0.0000    0.0000    0.0000    0.0000    0.0000   -0.0000   -0.0000    0.0000   -0.0000    0.0000
    2 C1     2s        -0.0000    0.0000    0.0000    0.0000   -0.0000   -0.0000   -0.0000    0.0000   -0.0000    0.0000
    3 C1     2px       -0.0000   -0.0000   -0.0000   -0.0000    0.0000    0.0000   -0.0000   -0.0000    0.0000    0.0000
    4 C1     2py        0.0000   -0.0000    0.0000   -0.0000    0.0000    0.0000    0.0000    0.0000   -0.0000   -0.0000
    5 C1     2pz        0.0000    0.0000   -0.0000   -0.0000   -0.0000   -0.0000   -0.0000   -0.0000    0.0000   -0.0000
    6 S2     1s        -0.0000    0.0000   -0.0000    0.0000   -1.0000    0.0063   -0.0000    0.0000    0.0000    0.0000
    7 S2     2s        -0.0000   -0.0000   -0.0000    0.0000    0.0000   -0.0000   -0.0000    0.0000    0.0000    0.0000
    8 S2     3s        -0.0000    0.0000   -0.0000    0.0000    0.0004   -0.0000   -0.0000    0.0000    0.0000    0.0000
    9 S2     2px        0.0000    0.0000    0.0000    0.0000    0.0000   -0.0000   -0.0000    0.0000   -0.0000    0.0000
   10 S2     3px       -0.0000    0.0000    0.0000    0.0000   -0.0000    0.0000   -0.0000    0.0000   -0.0000    0.0000
   11 S2     2py       -0.0000    0.0000    0.0000   -0.0000    0.0001   -0.0000   -0.0000    0.0000   -0.0000   -0.0000
   12 S2     3py       -0.0000    0.0000    0.0000   -0.0000   -0.0000    0.0000   -0.0000   -0.0000   -0.0000   -0.0000
   13 S2     2pz        0.0000    0.0000   -0.0000    0.0000    0.0001   -0.0000   -0.0000    0.0000    0.0000    0.0000
   14 S2     3pz        0.0000    0.0000   -0.0000    0.0000   -0.0000   -0.0000   -0.0000    0.0000    0.0000    0.0000
   15 O3     1s         0.0000   -0.0000   -0.0000    0.0000   -0.0000   -0.0000    0.0000    0.0000    0.0000    0.0000
   16 O3     2s        -0.0000    0.0000   -0.0000    0.0000   -0.0000   -0.0000    0.0000    0.0000    0.0000    0.0000
   17 O3     2px        0.0000   -0.0000    0.0000    0.0000    0.0000   -0.0000   -0.0000    0.0000    0.0000    0.0000
   18 O3     2py        0.0000   -0.0000    0.0000   -0.0000    0.0000    0.0000   -0.0000   -0.0000    0.0000    0.0000
   19 O3     2pz        0.0000   -0.0000   -0.0000   -0.0000    0.0000   -0.0000    0.0000    0.0000    0.0000   -0.0000
   20 O4     1s        -0.0000   -0.0000   -0.0000   -0.0000   -0.0000   -0.0000    0.0000    0.0000    0.0000   -0.0000
   21 O4     2s        -0.0000    0.0000   -0.0000   -0.0000   -0.0000   -0.0000    0.0000    0.0000    0.0000   -0.0000
   22 O4     2px        0.0000    0.0000   -0.0000    0.0000   -0.0000    0.0000    0.0000   -0.0000   -0.0000    0.0000
   23 O4     2py       -0.0000   -0.0000    0.0000    0.0000    0.0000    0.0000   -0.0000   -0.0000    0.0000   -0.0000
   24 O4     2pz       -0.0000   -0.0000   -0.0000    0.0000    0.0000   -0.0000    0.0000    0.0000    0.0000    0.0000
   25 PU5    1s         0.0000   -0.0000    0.0000   -0.0000    0.0000   -0.0000   -0.0000    0.0000    0.0000    0.0000
   26 PU5    2s         0.0000   -0.0000    0.0000    0.0000    0.0000   -0.0000    0.0000    0.0000    0.0000   -0.0000
   27 PU5    3s         0.0000   -0.0000    0.0000    0.0000    0.0000   -0.0000    0.0000   -0.0000    0.0000    0.0000
   28 PU5    4s        -0.0000    0.0000   -0.0000   -0.0000    0.0000   -0.0000    1.0000   -0.0000   -0.0000    0.0000
   29 PU5    5s         0.0000   -0.0000    0.0000    0.0000    0.0000   -0.0000   -0.0002    0.0000    0.0000   -0.0000
   30 PU5    6s        -0.0000    0.0000   -0.0000   -0.0000    0.0000   -0.0000    0.0000   -0.0000    0.0000    0.0000
   31 PU5    7s         0.0000   -0.0000    0.0000    0.0000    0.0000   -0.0000   -0.0000   -0.0000    0.0000   -0.0000
   32 PU5    2px       -0.0000    0.0000    0.0000   -0.0000    0.0000    0.0000   -0.0000    0.0000    0.0000    0.0000
   33 PU5    3px       -0.0000   -0.0000    0.0000   -0.0000    0.0000    0.0000    0.0000    0.0000    0.0000    0.0000
   34 PU5    4px        0.0000   -0.0000   -0.0000    0.0000    0.0000    0.0000   -0.0000    0.0001    0.0013    1.0000
   35 PU5    5px       -0.0000   -0.0000   -0.0000   -0.0000    0.0000    0.0000   -0.0000    0.0000   -0.0000   -0.0001
   36 PU5    6px        0.0000    0.0000    0.0000    0.0000    0.0000    0.0000   -0.0000    0.0000    0.0000    0.0001
   37 PU5    7px       -0.0000    0.0000   -0.0000   -0.0000    0.0000    0.0000   -0.0000    0.0000   -0.0000   -0.0000
   38 PU5    2py       -0.0000    0.0000    0.0000    0.0000    0.0000    0.0000    0.0000    0.0000    0.0000   -0.0000
   39 PU5    3py        0.0000    0.0000    0.0000    0.0000    0.0000    0.0000   -0.0000    0.0000    0.0000   -0.0000
   40 PU5    4py       -0.0000   -0.0000   -0.0000    0.0000    0.0000    0.0000    0.0000    0.0265    0.9996   -0.0013
   41 PU5    5py        0.0000    0.0000    0.0000   -0.0000    0.0000    0.0000   -0.0000   -0.0000   -0.0001    0.0000
   42 PU5    6py       -0.0000   -0.0000   -0.0000    0.0000    0.0000    0.0000   -0.0000    0.0000    0.0001   -0.0000
   43 PU5    7py        0.0000   -0.0000   -0.0000   -0.0000    0.0000    0.0000   -0.0000   -0.0000   -0.0001    0.0000
   44 PU5    2pz        0.0000   -0.0000    0.0000    0.0000   -0.0000   -0.0000   -0.0000    0.0000   -0.0000   -0.0000
   45 PU5    3pz        0.0000   -0.0000    0.0000   -0.0000   -0.0000   -0.0000   -0.0000    0.0000   -0.0000   -0.0000
   46 PU5    4pz       -0.0000    0.0000   -0.0000   -0.0000   -0.0000   -0.0000    0.0000    0.9996   -0.0265   -0.0001
   47 PU5    5pz        0.0000   -0.0000    0.0000    0.0000   -0.0000   -0.0000    0.0000    0.0001    0.0000    0.0000
   48 PU5    6pz       -0.0000    0.0000   -0.0000    0.0000   -0.0000   -0.0000   -0.0000    0.0000   -0.0000   -0.0000
   49 PU5    7pz        0.0000    0.0000    0.0000    0.0000    0.0000    0.0000   -0.0000   -0.0000    0.0000    0.0000
   50 PU5    3d2-       0.0338   -0.0006   -0.0033    0.9994    0.0000   -0.0000   -0.0000    0.0000   -0.0000   -0.0000
   51 PU5    4d2-      -0.0000    0.0000    0.0000   -0.0000    0.0000   -0.0000    0.0000    0.0000   -0.0000    0.0000
   52 PU5    5d2-       0.0000   -0.0000   -0.0000    0.0000    0.0000   -0.0000   -0.0000   -0.0000    0.0000    0.0000
   53 PU5    6d2-      -0.0000    0.0000    0.0000   -0.0000    0.0000   -0.0000   -0.0000   -0.0000   -0.0000    0.0000
   54 PU5    3d1-      -0.0012   -0.0027    0.0201   -0.0001   -0.0000    0.0000   -0.0000   -0.0000   -0.0000    0.0000
   55 PU5    4d1-       0.0000    0.0000   -0.0000    0.0000   -0.0000    0.0000    0.0000    0.0000    0.0000    0.0000
   56 PU5    5d1-      -0.0000   -0.0000    0.0000    0.0000   -0.0000    0.0000    0.0000   -0.0000    0.0000   -0.0000
   57 PU5    6d1-       0.0000    0.0000   -0.0000   -0.0000    0.0000   -0.0000    0.0000    0.0000   -0.0000    0.0000
   58 PU5    3d0       -0.0018    0.9823   -0.1874    0.0000   -0.0000    0.0000   -0.0000   -0.0000    0.0000   -0.0000
   59 PU5    4d0        0.0000   -0.0000    0.0000   -0.0000   -0.0000    0.0000    0.0001    0.0000   -0.0000    0.0000
   60 PU5    5d0       -0.0000    0.0000   -0.0000    0.0000   -0.0000    0.0000    0.0001    0.0000   -0.0000   -0.0000
   61 PU5    6d0       -0.0000    0.0000   -0.0000   -0.0000   -0.0000    0.0000    0.0000    0.0000    0.0000   -0.0000
   62 PU5    3d1+       0.9994    0.0018   -0.0001   -0.0338   -0.0000   -0.0000   -0.0000    0.0000    0.0000   -0.0000
   63 PU5    4d1+      -0.0000   -0.0000    0.0000    0.0000   -0.0000    0.0000    0.0000   -0.0000    0.0000    0.0000
   64 PU5    5d1+       0.0000    0.0000    0.0000   -0.0000   -0.0000    0.0000    0.0000   -0.0000   -0.0000    0.0000
   65 PU5    6d1+      -0.0000   -0.0000   -0.0000    0.0000    0.0000   -0.0000    0.0000   -0.0000    0.0000   -0.0000
   66 PU5    3d2+      -0.0001    0.1875    0.9821    0.0034   -0.0000    0.0000    0.0000    0.0000    0.0000    0.0000
   67 PU5    4d2+       0.0000   -0.0000   -0.0000   -0.0000   -0.0000    0.0000   -0.0000   -0.0000   -0.0000   -0.0000
   68 PU5    5d2+      -0.0000    0.0000    0.0000    0.0000   -0.0000    0.0000   -0.0000   -0.0000   -0.0000    0.0000
   69 PU5    6d2+      -0.0000   -0.0000   -0.0000   -0.0000   -0.0000    0.0000    0.0000    0.0000   -0.0000   -0.0000
   70 PU5    4f3-      -0.0000    0.0000    0.0000   -0.0000   -0.0000   -0.0000    0.0000   -0.0000   -0.0000    0.0000
   71 PU5    5f3-       0.0000   -0.0000   -0.0000    0.0000   -0.0000   -0.0000    0.0000    0.0000   -0.0000    0.0000
   72 PU5    4f2-       0.0000    0.0000   -0.0000    0.0000   -0.0000   -0.0000    0.0000    0.0000    0.0000    0.0000
   73 PU5    5f2-      -0.0000   -0.0000    0.0000    0.0000    0.0000    0.0000    0.0000    0.0000    0.0000    0.0000
   74 PU5    4f1-       0.0000    0.0000    0.0000   -0.0000   -0.0000   -0.0000   -0.0000    0.0000    0.0001   -0.0000
   75 PU5    5f1-      -0.0000   -0.0000   -0.0000    0.0000   -0.0000   -0.0000    0.0000    0.0000    0.0000   -0.0000
   76 PU5    4f0        0.0000    0.0000   -0.0000   -0.0000    0.0000    0.0000    0.0000    0.0002   -0.0000   -0.0000
   77 PU5    5f0       -0.0000    0.0000   -0.0000    0.0000    0.0000    0.0000    0.0000    0.0000   -0.0000   -0.0000
   78 PU5    4f1+       0.0000   -0.0000    0.0000   -0.0000   -0.0000   -0.0000   -0.0000    0.0000    0.0000    0.0002
   79 PU5    5f1+       0.0000    0.0000    0.0000    0.0000    0.0000    0.0000    0.0000    0.0000    0.0000    0.0000
   80 PU5    4f2+      -0.0000    0.0000    0.0000    0.0000    0.0000    0.0000   -0.0000   -0.0000   -0.0000    0.0000
   81 PU5    5f2+       0.0000    0.0000    0.0000   -0.0000   -0.0000   -0.0000    0.0000   -0.0000   -0.0000    0.0000
   82 PU5    4f3+      -0.0000   -0.0000   -0.0000   -0.0000   -0.0000   -0.0000   -0.0000    0.0000   -0.0000   -0.0000
   83 PU5    5f3+       0.0000    0.0000    0.0000    0.0000   -0.0000   -0.0000    0.0000   -0.0000   -0.0000   -0.0000
   84 O6     1s         0.0000   -0.0000    0.0000    0.0000   -0.0000    0.0000    0.0000    0.0000    0.0000    0.0000
   85 O6     2s         0.0000   -0.0000    0.0000    0.0000   -0.0000    0.0000    0.0000    0.0000    0.0000    0.0000
   86 O6     2px       -0.0000   -0.0000    0.0000    0.0000   -0.0000   -0.0000   -0.0000    0.0000   -0.0000   -0.0000
   87 O6     2py        0.0000    0.0000   -0.0000    0.0000   -0.0000   -0.0000    0.0000   -0.0000   -0.0000    0.0000
   88 O6     2pz        0.0000   -0.0000    0.0000    0.0000    0.0000   -0.0000   -0.0000    0.0000   -0.0000    0.0000
   89 O7     1s         0.0000   -0.0000   -0.0000    0.0000    0.0000    0.0000    0.0000   -0.0000   -0.0000   -0.0000
   90 O7     2s        -0.0000    0.0000   -0.0000    0.0000    0.0000    0.0000    0.0000   -0.0000   -0.0000   -0.0000
   91 O7     2px       -0.0000    0.0000   -0.0000   -0.0000    0.0000    0.0000    0.0000    0.0000    0.0000    0.0000
   92 O7     2py       -0.0000    0.0000   -0.0000    0.0000    0.0000    0.0000    0.0000   -0.0000    0.0000    0.0000
   93 O7     2pz       -0.0000    0.0000    0.0000    0.0000   -0.0000    0.0000   -0.0000    0.0000    0.0000   -0.0000
   94 S8     1s        -0.0000    0.0000   -0.0000   -0.0000    0.0063    1.0000   -0.0000   -0.0000   -0.0000    0.0000
   95 S8     2s        -0.0000   -0.0000   -0.0000   -0.0000    0.0000   -0.0000   -0.0000   -0.0000   -0.0000    0.0000
   96 S8     3s        -0.0000    0.0000   -0.0000   -0.0000    0.0000   -0.0004   -0.0000   -0.0000   -0.0000    0.0000
   97 S8     2px       -0.0000   -0.0000   -0.0000   -0.0000    0.0000    0.0000    0.0000    0.0000   -0.0000    0.0000
   98 S8     3px        0.0000   -0.0000   -0.0000   -0.0000   -0.0000   -0.0000    0.0000    0.0000   -0.0000    0.0000
   99 S8     2py        0.0000   -0.0000   -0.0000   -0.0000    0.0000    0.0001    0.0000    0.0000   -0.0000    0.0000
  100 S8     3py        0.0000   -0.0000   -0.0000   -0.0000    0.0000   -0.0000    0.0000   -0.0000   -0.0000    0.0000
  101 S8     2pz        0.0000   -0.0000    0.0000    0.0000    0.0000    0.0001    0.0000    0.0000    0.0000   -0.0000
  102 S8     3pz        0.0000   -0.0000    0.0000    0.0000   -0.0000   -0.0000    0.0000    0.0000    0.0000    0.0000
  103 C9     1s         0.0000    0.0000    0.0000    0.0000    0.0000   -0.0000   -0.0000   -0.0000    0.0000    0.0000
  104 C9     2s         0.0000    0.0000    0.0000   -0.0000    0.0000    0.0000   -0.0000   -0.0000    0.0000    0.0000
  105 C9     2px        0.0000   -0.0000   -0.0000    0.0000   -0.0000    0.0000   -0.0000    0.0000   -0.0000    0.0000
  106 C9     2py        0.0000    0.0000   -0.0000   -0.0000    0.0000    0.0000   -0.0000    0.0000   -0.0000    0.0000
  107 C9     2pz        0.0000   -0.0000    0.0000    0.0000   -0.0000   -0.0000    0.0000   -0.0000    0.0000    0.0000
  108 O10    1s         0.0000   -0.0000    0.0000   -0.0000   -0.0000    0.0000    0.0000   -0.0000   -0.0000    0.0000
  109 O10    2s         0.0000   -0.0000    0.0000   -0.0000   -0.0000    0.0000    0.0000   -0.0000   -0.0000    0.0000
  110 O10    2px        0.0000   -0.0000    0.0000   -0.0000   -0.0000   -0.0000    0.0000   -0.0000   -0.0000   -0.0000
  111 O10    2py       -0.0000   -0.0000    0.0000    0.0000   -0.0000   -0.0000   -0.0000   -0.0000   -0.0000    0.0000
  112 O10    2pz       -0.0000    0.0000   -0.0000   -0.0000   -0.0000    0.0000    0.0000    0.0000   -0.0000   -0.0000
  113 O11    1s        -0.0000   -0.0000   -0.0000   -0.0000    0.0000    0.0000    0.0000   -0.0000   -0.0000    0.0000
  114 O11    2s        -0.0000    0.0000   -0.0000   -0.0000    0.0000    0.0000    0.0000   -0.0000   -0.0000    0.0000
  115 O11    2px       -0.0000   -0.0000    0.0000   -0.0000   -0.0000   -0.0000   -0.0000   -0.0000   -0.0000    0.0000
  116 O11    2py        0.0000    0.0000   -0.0000   -0.0000    0.0000    0.0000    0.0000   -0.0000    0.0000   -0.0000
  117 O11    2pz        0.0000    0.0000    0.0000   -0.0000   -0.0000    0.0000   -0.0000    0.0000    0.0000    0.0000
  118 H12    1s        -0.0000    0.0000    0.0000    0.0000    0.0000   -0.0000    0.0000   -0.0000    0.0000   -0.0000
  119 H13    1s        -0.0000   -0.0000   -0.0000   -0.0000    0.0000   -0.0000   -0.0000    0.0000   -0.0000   -0.0000
  120 H14    1s         0.0000    0.0000    0.0000   -0.0000    0.0000   -0.0000    0.0000   -0.0000    0.0000    0.0000
  121 H15    1s         0.0000    0.0000    0.0000   -0.0000    0.0000   -0.0000    0.0000    0.0000   -0.0000   -0.0000
  122 H16    1s         0.0000   -0.0000   -0.0000   -0.0000    0.0000   -0.0000   -0.0000   -0.0000    0.0000   -0.0000
  123 H17    1s        -0.0000    0.0000    0.0000    0.0000    0.0000   -0.0000    0.0000    0.0000   -0.0000    0.0000
 
 
      Orbital               21        22        23        24        25        26        27        28        29        30
      Energy          -31.2918  -31.2909  -31.2900  -31.2854  -31.2841  -20.3321  -20.3321  -20.2359  -20.2359  -20.2358
      Occ. No.          2.0000    2.0000    2.0000    2.0000    2.0000    2.0000    2.0000    2.0000    2.0000    2.0000
 
    1 C1     1s        -0.0000   -0.0000    0.0000   -0.0000   -0.0000   -0.0000    0.0000    0.0000    0.0000   -0.0000
    2 C1     2s        -0.0000   -0.0000    0.0000   -0.0000   -0.0000   -0.0000    0.0000    0.0000   -0.0000    0.0000
    3 C1     2px        0.0000    0.0000   -0.0000   -0.0000    0.0000    0.0000   -0.0000   -0.0000    0.0000    0.0000
    4 C1     2py        0.0000   -0.0000   -0.0000    0.0000   -0.0000   -0.0000    0.0000    0.0000   -0.0000    0.0000
    5 C1     2pz       -0.0000    0.0000   -0.0000    0.0000    0.0000    0.0000   -0.0000   -0.0000   -0.0000    0.0000
    6 S2     1s         0.0000    0.0000    0.0000   -0.0000    0.0000    0.0000   -0.0000    0.0000   -0.0000    0.0000
    7 S2     2s         0.0000    0.0000    0.0000   -0.0000    0.0000    0.0000   -0.0000    0.0000   -0.0001    0.0003
    8 S2     3s         0.0000    0.0000    0.0000   -0.0000    0.0000    0.0001   -0.0000    0.0000   -0.0004    0.0013
    9 S2     2px       -0.0000   -0.0000   -0.0000   -0.0000   -0.0000   -0.0000   -0.0000    0.0000   -0.0001   -0.0000
   10 S2     3px       -0.0000   -0.0000    0.0000   -0.0000   -0.0000   -0.0000    0.0000    0.0000   -0.0010   -0.0003
   11 S2     2py       -0.0000   -0.0000   -0.0000    0.0000   -0.0000   -0.0000    0.0000   -0.0000    0.0000   -0.0001
   12 S2     3py       -0.0000   -0.0000   -0.0000    0.0000   -0.0000   -0.0000    0.0000   -0.0000    0.0002   -0.0007
   13 S2     2pz        0.0000   -0.0000   -0.0000    0.0000    0.0000    0.0000    0.0000    0.0000   -0.0000    0.0000
   14 S2     3pz       -0.0000   -0.0000   -0.0000   -0.0000    0.0000    0.0000    0.0000   -0.0000   -0.0000    0.0001
   15 O3     1s         0.0000   -0.0000    0.0000   -0.0000    0.0000   -0.0000   -0.0000   -0.0474    0.8704   -0.4848
   16 O3     2s         0.0000   -0.0000   -0.0000   -0.0000    0.0000    0.0000   -0.0000   -0.0001    0.0016   -0.0009
   17 O3     2px        0.0000    0.0000    0.0000   -0.0000   -0.0000    0.0000   -0.0000    0.0001   -0.0015    0.0009
   18 O3     2py        0.0000   -0.0000   -0.0000    0.0000   -0.0000    0.0000    0.0000   -0.0000    0.0008   -0.0003
   19 O3     2pz        0.0000   -0.0000   -0.0000   -0.0000    0.0000    0.0000    0.0000    0.0000   -0.0002    0.0001
   20 O4     1s         0.0000   -0.0000    0.0000    0.0000    0.0000   -0.0000   -0.0000    0.0144   -0.4901   -0.8638
   21 O4     2s         0.0000   -0.0000    0.0000    0.0000    0.0000    0.0000   -0.0000    0.0000   -0.0009   -0.0016
   22 O4     2px       -0.0000   -0.0000    0.0000   -0.0000    0.0000   -0.0000    0.0000    0.0000   -0.0008   -0.0015
   23 O4     2py        0.0000   -0.0000    0.0000   -0.0000   -0.0000    0.0000    0.0000    0.0000   -0.0005   -0.0007
   24 O4     2pz        0.0000   -0.0000    0.0000    0.0000    0.0000    0.0000    0.0000   -0.0000    0.0001    0.0002
   25 PU5    1s        -0.0000    0.0000   -0.0000    0.0000    0.0000   -0.0000    0.0000   -0.0000   -0.0000    0.0000
   26 PU5    2s         0.0000   -0.0000    0.0000   -0.0000   -0.0000   -0.0000    0.0000   -0.0000   -0.0000    0.0000
   27 PU5    3s        -0.0000    0.0000   -0.0000    0.0000    0.0000   -0.0000    0.0000   -0.0000   -0.0000    0.0000
   28 PU5    4s        -0.0001    0.0000    0.0000    0.0000    0.0001   -0.0001    0.0000   -0.0000   -0.0000    0.0000
   29 PU5    5s         0.0004   -0.0000    0.0000   -0.0000   -0.0001   -0.0002    0.0000   -0.0000   -0.0000    0.0000
   30 PU5    6s        -0.0001    0.0000   -0.0000    0.0000    0.0000   -0.0009    0.0000   -0.0000   -0.0000    0.0001
   31 PU5    7s        -0.0000   -0.0000   -0.0000   -0.0000   -0.0000   -0.0009    0.0000   -0.0001   -0.0001    0.0002
   32 PU5    2px        0.0000   -0.0000    0.0000    0.0000   -0.0000    0.0000   -0.0000   -0.0000   -0.0000   -0.0000
   33 PU5    3px        0.0000    0.0000   -0.0000   -0.0000    0.0000    0.0000   -0.0000   -0.0000   -0.0000   -0.0000
   34 PU5    4px       -0.0000   -0.0000   -0.0000   -0.0000    0.0000    0.0000   -0.0000   -0.0000   -0.0000   -0.0000
   35 PU5    5px       -0.0000   -0.0000    0.0000    0.0000   -0.0000    0.0000   -0.0000   -0.0000   -0.0000   -0.0000
   36 PU5    6px       -0.0000   -0.0000   -0.0000   -0.0000   -0.0000    0.0000   -0.0000   -0.0000   -0.0000   -0.0000
   37 PU5    7px       -0.0000   -0.0000    0.0000    0.0000    0.0000    0.0000   -0.0000   -0.0000   -0.0000   -0.0000
   38 PU5    2py       -0.0000    0.0000    0.0000   -0.0000   -0.0000    0.0000    0.0000    0.0000   -0.0000    0.0000
   39 PU5    3py        0.0000   -0.0000    0.0000    0.0000    0.0000    0.0000    0.0000    0.0000   -0.0000    0.0000
   40 PU5    4py        0.0000   -0.0000   -0.0000    0.0000    0.0000    0.0000    0.0000    0.0000   -0.0000    0.0000
   41 PU5    5py       -0.0000    0.0000   -0.0000    0.0000   -0.0000    0.0000    0.0000    0.0000   -0.0000    0.0000
   42 PU5    6py        0.0000    0.0000   -0.0000    0.0000    0.0000    0.0000    0.0000    0.0001   -0.0000    0.0002
   43 PU5    7py        0.0000    0.0000   -0.0000    0.0000   -0.0000    0.0000    0.0000    0.0002   -0.0001    0.0005
   44 PU5    2pz        0.0000    0.0000   -0.0000   -0.0000   -0.0000   -0.0000   -0.0000   -0.0000    0.0000   -0.0000
   45 PU5    3pz       -0.0000   -0.0000    0.0000    0.0000    0.0000   -0.0000   -0.0000   -0.0000    0.0000   -0.0000
   46 PU5    4pz       -0.0000   -0.0000    0.0000   -0.0000    0.0000   -0.0000   -0.0000   -0.0000    0.0000   -0.0000
   47 PU5    5pz        0.0000   -0.0000   -0.0000   -0.0000   -0.0000   -0.0000   -0.0002   -0.0000    0.0000   -0.0000
   48 PU5    6pz       -0.0000   -0.0000    0.0000   -0.0000   -0.0000   -0.0000   -0.0009   -0.0000    0.0000   -0.0000
   49 PU5    7pz       -0.0000   -0.0000   -0.0000   -0.0000   -0.0000   -0.0000   -0.0007   -0.0000    0.0000   -0.0000
   50 PU5    3d2-      -0.0000    0.0000    0.0000    0.0000   -0.0000   -0.0000    0.0000    0.0000   -0.0000   -0.0000
   51 PU5    4d2-      -0.0003    0.0002    0.0168    0.9999   -0.0033    0.0000   -0.0000    0.0000   -0.0000   -0.0000
   52 PU5    5d2-      -0.0000    0.0000    0.0000    0.0007   -0.0000   -0.0000    0.0000    0.0000   -0.0000   -0.0000
   53 PU5    6d2-      -0.0000    0.0000    0.0000    0.0001   -0.0000   -0.0000    0.0000    0.0001   -0.0001   -0.0000
   54 PU5    3d1-       0.0000    0.0000   -0.0000   -0.0000    0.0000    0.0000   -0.0000    0.0000    0.0000   -0.0000
   55 PU5    4d1-       0.0553    0.9984   -0.0015   -0.0001    0.0122    0.0000   -0.0000    0.0000    0.0000   -0.0000
   56 PU5    5d1-       0.0000    0.0009   -0.0000   -0.0000    0.0000    0.0000   -0.0000    0.0000    0.0000   -0.0000
   57 PU5    6d1-       0.0000    0.0001   -0.0000   -0.0000    0.0000    0.0000   -0.0000    0.0000    0.0000   -0.0000
   58 PU5    3d0        0.0000   -0.0000   -0.0000   -0.0000   -0.0000   -0.0000    0.0000    0.0000    0.0000   -0.0000
   59 PU5    4d0        0.9907   -0.0533   -0.0002   -0.0001   -0.1249   -0.0000    0.0000    0.0000    0.0000   -0.0000
   60 PU5    5d0        0.0009   -0.0000   -0.0000   -0.0000   -0.0001   -0.0001    0.0000    0.0000    0.0000   -0.0000
   61 PU5    6d0        0.0000   -0.0000   -0.0000   -0.0000    0.0000   -0.0007    0.0000    0.0000    0.0000   -0.0001
   62 PU5    3d1+       0.0000    0.0000    0.0000   -0.0000   -0.0000   -0.0000    0.0000   -0.0000    0.0000    0.0000
   63 PU5    4d1+       0.0003    0.0014    0.9999   -0.0168   -0.0002   -0.0000    0.0000   -0.0000    0.0000    0.0000
   64 PU5    5d1+       0.0000    0.0000    0.0009   -0.0000   -0.0000   -0.0000    0.0000   -0.0000    0.0000    0.0000
   65 PU5    6d1+       0.0000    0.0000    0.0001   -0.0000   -0.0000   -0.0000    0.0000   -0.0000    0.0000    0.0000
   66 PU5    3d2+       0.0000   -0.0000    0.0000    0.0000    0.0000    0.0000   -0.0000    0.0000    0.0000   -0.0000
   67 PU5    4d2+       0.1240   -0.0189    0.0002    0.0033    0.9921   -0.0000    0.0000    0.0000    0.0000   -0.0000
   68 PU5    5d2+       0.0001   -0.0000    0.0000    0.0000    0.0007    0.0000   -0.0000    0.0000    0.0000   -0.0000
   69 PU5    6d2+       0.0000   -0.0000    0.0000    0.0000    0.0001    0.0000   -0.0000    0.0001    0.0001   -0.0002
   70 PU5    4f3-       0.0000   -0.0000   -0.0000   -0.0000    0.0000   -0.0000   -0.0000    0.0000   -0.0000    0.0000
   71 PU5    5f3-      -0.0000   -0.0000   -0.0000    0.0000    0.0000   -0.0000   -0.0000   -0.0000    0.0000   -0.0000
   72 PU5    4f2-      -0.0000   -0.0000    0.0000    0.0000   -0.0000    0.0000   -0.0000    0.0000    0.0000    0.0000
   73 PU5    5f2-      -0.0000   -0.0000    0.0000   -0.0000    0.0000   -0.0000   -0.0000    0.0000    0.0000    0.0000
   74 PU5    4f1-       0.0000    0.0000   -0.0000    0.0000    0.0000    0.0000    0.0000   -0.0000    0.0000   -0.0000
   75 PU5    5f1-       0.0000   -0.0000    0.0000   -0.0000    0.0000    0.0000    0.0000   -0.0000    0.0000   -0.0000
   76 PU5    4f0        0.0000   -0.0000    0.0000    0.0000   -0.0000   -0.0000   -0.0000    0.0000   -0.0000    0.0000
   77 PU5    5f0        0.0000   -0.0000   -0.0000   -0.0000    0.0000   -0.0000   -0.0001    0.0000   -0.0000    0.0000
   78 PU5    4f1+      -0.0000    0.0000    0.0000   -0.0000    0.0000    0.0000    0.0000    0.0000    0.0000    0.0000
   79 PU5    5f1+      -0.0000    0.0000   -0.0000   -0.0000   -0.0000    0.0000   -0.0000    0.0000    0.0000    0.0000
   80 PU5    4f2+       0.0000   -0.0000   -0.0000    0.0000    0.0000    0.0000    0.0000    0.0000   -0.0000    0.0000
   81 PU5    5f2+       0.0000   -0.0000   -0.0000    0.0000   -0.0000    0.0000    0.0000    0.0000   -0.0000    0.0000
   82 PU5    4f3+       0.0000    0.0000   -0.0000   -0.0000   -0.0000    0.0000    0.0000    0.0000    0.0000    0.0000
   83 PU5    5f3+       0.0000    0.0000   -0.0000   -0.0000   -0.0000   -0.0000   -0.0000    0.0000    0.0000    0.0000
   84 O6     1s         0.0000   -0.0000    0.0000   -0.0000   -0.0000    0.7016   -0.7128    0.0000    0.0000   -0.0000
   85 O6     2s         0.0000   -0.0000    0.0000   -0.0000   -0.0000    0.0011   -0.0010   -0.0000    0.0000   -0.0000
   86 O6     2px        0.0000   -0.0000   -0.0000   -0.0000   -0.0000    0.0000   -0.0000   -0.0000   -0.0000   -0.0000
   87 O6     2py       -0.0000   -0.0000    0.0000   -0.0000   -0.0000    0.0000   -0.0000   -0.0000    0.0000   -0.0001
   88 O6     2pz        0.0000   -0.0000    0.0000   -0.0000   -0.0000    0.0010   -0.0010   -0.0000   -0.0000    0.0000
   89 O7     1s         0.0000   -0.0000    0.0000   -0.0000    0.0000   -0.0000    0.0000   -0.3689   -0.0237    0.1316
   90 O7     2s         0.0000   -0.0000   -0.0000   -0.0000    0.0000    0.0000    0.0000   -0.0006   -0.0000    0.0003
   91 O7     2px       -0.0000   -0.0000   -0.0000    0.0000    0.0000   -0.0000   -0.0000   -0.0006   -0.0000    0.0002
   92 O7     2py       -0.0000    0.0000    0.0000   -0.0000    0.0000   -0.0000    0.0000    0.0004    0.0000   -0.0001
   93 O7     2pz       -0.0000    0.0000    0.0000    0.0000   -0.0000   -0.0000    0.0000   -0.0001   -0.0000    0.0000
   94 S8     1s         0.0000    0.0000    0.0000    0.0000    0.0000    0.0000    0.0000   -0.0000   -0.0000   -0.0000
   95 S8     2s         0.0000    0.0000    0.0000    0.0000    0.0000    0.0000    0.0000   -0.0001   -0.0000   -0.0000
   96 S8     3s         0.0000    0.0000    0.0000    0.0000    0.0000    0.0001    0.0000   -0.0005   -0.0000   -0.0001
   97 S8     2px        0.0000    0.0000    0.0000    0.0000    0.0000   -0.0000   -0.0000   -0.0001   -0.0000    0.0000
   98 S8     3px        0.0000    0.0000   -0.0000    0.0000    0.0000   -0.0000    0.0000   -0.0010   -0.0001    0.0001
   99 S8     2py        0.0000    0.0000    0.0000    0.0000    0.0000    0.0000    0.0000   -0.0000   -0.0000   -0.0000
  100 S8     3py        0.0000    0.0000    0.0000    0.0000    0.0000    0.0000    0.0000   -0.0003   -0.0000   -0.0001
  101 S8     2pz       -0.0000    0.0000   -0.0000   -0.0000   -0.0000   -0.0000    0.0000    0.0000    0.0000    0.0000
  102 S8     3pz        0.0000    0.0000   -0.0000   -0.0000   -0.0000   -0.0000    0.0000    0.0001    0.0000    0.0000
  103 C9     1s        -0.0000   -0.0000   -0.0000   -0.0000   -0.0000   -0.0000   -0.0000    0.0000    0.0000   -0.0000
  104 C9     2s        -0.0000   -0.0000   -0.0000    0.0000   -0.0000   -0.0000   -0.0000   -0.0000    0.0000   -0.0000
  105 C9     2px        0.0000    0.0000    0.0000    0.0000    0.0000    0.0000    0.0000    0.0000    0.0000   -0.0000
  106 C9     2py       -0.0000    0.0000   -0.0000    0.0000    0.0000    0.0000    0.0000    0.0000   -0.0000    0.0000
  107 C9     2pz        0.0000   -0.0000   -0.0000   -0.0000   -0.0000   -0.0000   -0.0000    0.0000    0.0000   -0.0000
  108 O10    1s         0.0000   -0.0000   -0.0000   -0.0000   -0.0000    0.7128    0.7015    0.0000    0.0000   -0.0000
  109 O10    2s         0.0000   -0.0000    0.0000    0.0000   -0.0000    0.0011    0.0010    0.0000   -0.0000    0.0000
  110 O10    2px        0.0000    0.0000    0.0000    0.0000    0.0000    0.0000    0.0000   -0.0000   -0.0000   -0.0000
  111 O10    2py        0.0000    0.0000   -0.0000   -0.0000    0.0000   -0.0000   -0.0000   -0.0000    0.0000   -0.0000
  112 O10    2pz       -0.0000    0.0000    0.0000    0.0000    0.0000   -0.0010   -0.0009    0.0000    0.0000   -0.0000
  113 O11    1s         0.0000   -0.0000    0.0000    0.0000    0.0000   -0.0000    0.0000    0.9282    0.0426    0.0410
  114 O11    2s         0.0000   -0.0000    0.0000    0.0000    0.0000    0.0000    0.0000    0.0017    0.0001    0.0001
  115 O11    2px        0.0000    0.0000   -0.0000    0.0000   -0.0000    0.0000    0.0000   -0.0016   -0.0001   -0.0001
  116 O11    2py       -0.0000    0.0000   -0.0000    0.0000    0.0000   -0.0000    0.0000   -0.0008   -0.0000   -0.0000
  117 O11    2pz       -0.0000    0.0000   -0.0000   -0.0000   -0.0000   -0.0000    0.0000    0.0002    0.0000    0.0000
  118 H12    1s        -0.0000   -0.0000    0.0000   -0.0000    0.0000    0.0000    0.0000    0.0000   -0.0000    0.0000
  119 H13    1s         0.0000    0.0000    0.0000    0.0000    0.0000    0.0001    0.0001    0.0000   -0.0000    0.0000
  120 H14    1s        -0.0000   -0.0000   -0.0000    0.0000    0.0000    0.0000    0.0000   -0.0000   -0.0000    0.0000
  121 H15    1s        -0.0000   -0.0000   -0.0000    0.0000    0.0000    0.0000   -0.0000   -0.0000    0.0000    0.0000
  122 H16    1s         0.0000    0.0000   -0.0000    0.0000    0.0000    0.0001   -0.0001   -0.0000    0.0000   -0.0000
  123 H17    1s        -0.0000   -0.0000    0.0000   -0.0000    0.0000    0.0000   -0.0000   -0.0000   -0.0000    0.0000
 
 
      Orbital               31        32        33        34        35        36        37        38        39        40
      Energy          -20.2358  -16.8395  -16.8310  -16.8297  -16.8254  -16.8252  -16.8201  -16.8193  -13.7545  -11.2081
      Occ. No.          2.0000    2.0000    2.0000    2.0000    2.0000    2.0000    2.0000    2.0000    2.0000    2.0000
 
[...]
 ###                                                                         ###
 ###                                                                         ###
 ###############################################################################
 ###############################################################################
 ###############################################################################
 ###############################################################################
 ###                                                                         ###
 ###                                                                         ###
 ###    RunFile label ipCff                                                  ###
 ###    was used       41 times                                              ###
 ###                                                                         ###
 ###                                                                         ###
 ###############################################################################
 ###############################################################################
 ###############################################################################
 ###############################################################################
 ###                                                                         ###
 ###                                                                         ###
 ###    RunFile label ipExp                                                  ###
 ###    was used       41 times                                              ###
 ###                                                                         ###
 ###                                                                         ###
 ###############################################################################
 ###############################################################################
 ###############################################################################
 ###############################################################################
 ###                                                                         ###
 ###                                                                         ###
 ###    RunFile label IndS                                                   ###
 ###    was used       41 times                                              ###
 ###                                                                         ###
 ###                                                                         ###
 ###############################################################################
 ###############################################################################
 ###############################################################################
 ###############################################################################
 ###                                                                         ###
 ###                                                                         ###
 ###    RunFile label ip_Occ                                                 ###
 ###    was used       41 times                                              ###
 ###                                                                         ###
 ###                                                                         ###
 ###############################################################################
 ###############################################################################
 ###############################################################################
 ###############################################################################
 ###                                                                         ###
 ###                                                                         ###
 ###    RunFile label ipAkl                                                  ###
 ###    was used       41 times                                              ###
 ###                                                                         ###
 ###                                                                         ###
 ###############################################################################
 ###############################################################################
 ###############################################################################
 ###############################################################################
 ###                                                                         ###
 ###                                                                         ###
 ###    RunFile label ipBk                                                   ###
 ###    was used       41 times                                              ###
 ###                                                                         ###
 ###                                                                         ###
 ###############################################################################
 ###############################################################################
 ###############################################################################
 ###############################################################################
 ###                                                                         ###
 ###                                                                         ###
 ###    RunFile label nOpt                                                   ###
 ###    was used       41 times                                              ###
 ###                                                                         ###
 ###                                                                         ###
 ###############################################################################
 ###############################################################################
 ###############################################################################
 ###############################################################################
 ###                                                                         ###
 ###                                                                         ###
 ###    RunFile label Prjct                                                  ###
 ###    was used       41 times                                              ###
 ###                                                                         ###
 ###                                                                         ###
 ###############################################################################
 ###############################################################################
 ###############################################################################
 ###############################################################################
 ###                                                                         ###
 ###                                                                         ###
 ###    RunFile label Transf                                                 ###
 ###    was used       41 times                                              ###
 ###                                                                         ###
 ###                                                                         ###
 ###############################################################################
 ###############################################################################
 ###############################################################################
 ###############################################################################
 ###                                                                         ###
 ###                                                                         ###
 ###    RunFile label iCoSet                                                 ###
 ###    was used       41 times                                              ###
 ###                                                                         ###
 ###                                                                         ###
 ###############################################################################
 ###############################################################################
 ###############################################################################
 ###############################################################################
 ###                                                                         ###
 ###                                                                         ###
 ###    RunFile label nBasis_Cntrct                                          ###
 ###    was used       41 times                                              ###
 ###                                                                         ###
 ###                                                                         ###
 ###############################################################################
 ###############################################################################
 ###############################################################################
 ###############################################################################
 ###                                                                         ###
 ###                                                                         ###
 ###    RunFile label ipCff_Cntrct                                           ###
 ###    was used       41 times                                              ###
 ###                                                                         ###
 ###                                                                         ###
 ###############################################################################
 ###############################################################################
 ###############################################################################
 ###############################################################################
 ###                                                                         ###
 ###                                                                         ###
 ###    RunFile label ipCff_Prim                                             ###
 ###    was used       41 times                                              ###
 ###                                                                         ###
 ###                                                                         ###
 ###############################################################################
 ###############################################################################
 ###############################################################################
 ###############################################################################
 ###                                                                         ###
 ###                                                                         ###
 ###    RunFile label ipFockOp                                               ###
 ###    was used       41 times                                              ###
 ###                                                                         ###
 ###                                                                         ###
 ###############################################################################
 ###############################################################################
 ###############################################################################
 ###############################################################################
 ###                                                                         ###
 ###                                                                         ###
 ###    RunFile label IrrCmp                                                 ###
 ###    was used       41 times                                              ###
 ###                                                                         ###
 ###                                                                         ###
 ###############################################################################
 ###############################################################################
 ###############################################################################
 ###############################################################################
 ###                                                                         ###
 ###                                                                         ###
 ###    RunFile label iAOtSO                                                 ###
 ###    was used       41 times                                              ###
 ###                                                                         ###
 ###                                                                         ###
 ###############################################################################
 ###############################################################################
 ###############################################################################
 ###############################################################################
 ###                                                                         ###
 ###                                                                         ###
 ###    RunFile label iSOInf                                                 ###
 ###    was used       41 times                                              ###
 ###                                                                         ###
 ###                                                                         ###
 ###############################################################################
 ###############################################################################
 ###############################################################################
 ###############################################################################
 ###                                                                         ###
 ###                                                                         ###
 ###    RunFile label FragShell                                              ###
 ###    was used       41 times                                              ###
 ###                                                                         ###
 ###                                                                         ###
 ###############################################################################
 ###############################################################################
 ###############################################################################
 ###############################################################################
 ###                                                                         ###
 ###                                                                         ###
 ###    RunFile label AuxShell                                               ###
 ###    was used       41 times                                              ###
 ###                                                                         ###
 ###                                                                         ###
 ###############################################################################
 ###############################################################################
--- Stop Module: rasscf at Fri Nov 16 15:57:21 2018 /rc=_RC_ALL_IS_WELL_ ---
*** files: PuO2_CH3SO2_CH3SO2-m1-quartet.casscf.MB.LprOrb PuO2_CH3SO2_CH3SO2-m1-quartet.casscf.MB.rasscf.molden.7 PuO2_CH3SO2_CH3SO2-m1-quartet.casscf.MB.rasscf.molden.11
           PuO2_CH3SO2_CH3SO2-m1-quartet.casscf.MB.rasscf.molden.9 PuO2_CH3SO2_CH3SO2-m1-quartet.casscf.MB.rasscf.molden.14 PuO2_CH3SO2_CH3SO2-m1-quartet.casscf.MB.rasscf.molden.12
           PuO2_CH3SO2_CH3SO2-m1-quartet.casscf.MB.rasscf.molden.4 PuO2_CH3SO2_CH3SO2-m1-quartet.casscf.MB.rasscf.molden.8 PuO2_CH3SO2_CH3SO2-m1-quartet.casscf.MB.rasscf.molden.18
           PuO2_CH3SO2_CH3SO2-m1-quartet.casscf.MB.rasscf.molden.13 PuO2_CH3SO2_CH3SO2-m1-quartet.casscf.MB.rasscf.molden.16 PuO2_CH3SO2_CH3SO2-m1-quartet.casscf.MB.rasscf.molden.6
           PuO2_CH3SO2_CH3SO2-m1-quartet.casscf.MB.rasscf.molden.15 PuO2_CH3SO2_CH3SO2-m1-quartet.casscf.MB.rasscf.molden.3 PuO2_CH3SO2_CH3SO2-m1-quartet.casscf.MB.rasscf.molden.5
           PuO2_CH3SO2_CH3SO2-m1-quartet.casscf.MB.rasscf.molden.10 PuO2_CH3SO2_CH3SO2-m1-quartet.casscf.MB.rasscf.molden PuO2_CH3SO2_CH3SO2-m1-quartet.casscf.MB.rasscf.molden.19
           PuO2_CH3SO2_CH3SO2-m1-quartet.casscf.MB.rasscf.molden.20 PuO2_CH3SO2_CH3SO2-m1-quartet.casscf.MB.rasscf.molden.1 PuO2_CH3SO2_CH3SO2-m1-quartet.casscf.MB.rasscf.molden.17
           PuO2_CH3SO2_CH3SO2-m1-quartet.casscf.MB.rasscf.molden.2 PuO2_CH3SO2_CH3SO2-m1-quartet.casscf.MB.LoProp.molden PuO2_CH3SO2_CH3SO2-m1-quartet.casscf.MB.RasOrb.11
           PuO2_CH3SO2_CH3SO2-m1-quartet.casscf.MB.RasOrb.18 PuO2_CH3SO2_CH3SO2-m1-quartet.casscf.MB.RasOrb.5 PuO2_CH3SO2_CH3SO2-m1-quartet.casscf.MB.RasOrb.1
           PuO2_CH3SO2_CH3SO2-m1-quartet.casscf.MB.RasOrb.15 PuO2_CH3SO2_CH3SO2-m1-quartet.casscf.MB.RasOrb.4 PuO2_CH3SO2_CH3SO2-m1-quartet.casscf.MB.RasOrb.8
           PuO2_CH3SO2_CH3SO2-m1-quartet.casscf.MB.RasOrb.6 PuO2_CH3SO2_CH3SO2-m1-quartet.casscf.MB.RasOrb.19 PuO2_CH3SO2_CH3SO2-m1-quartet.casscf.MB.RasOrb.3
           PuO2_CH3SO2_CH3SO2-m1-quartet.casscf.MB.RasOrb.20 PuO2_CH3SO2_CH3SO2-m1-quartet.casscf.MB.RasOrb.7 PuO2_CH3SO2_CH3SO2-m1-quartet.casscf.MB.RasOrb.2
           PuO2_CH3SO2_CH3SO2-m1-quartet.casscf.MB.RasOrb PuO2_CH3SO2_CH3SO2-m1-quartet.casscf.MB.RasOrb.17 PuO2_CH3SO2_CH3SO2-m1-quartet.casscf.MB.RasOrb.10
           PuO2_CH3SO2_CH3SO2-m1-quartet.casscf.MB.RasOrb.13 PuO2_CH3SO2_CH3SO2-m1-quartet.casscf.MB.RasOrb.9 PuO2_CH3SO2_CH3SO2-m1-quartet.casscf.MB.RasOrb.12
           PuO2_CH3SO2_CH3SO2-m1-quartet.casscf.MB.RasOrb.14 PuO2_CH3SO2_CH3SO2-m1-quartet.casscf.MB.RasOrb.16 PuO2_CH3SO2_CH3SO2-m1-quartet.casscf.MB.rasscf.h5
           PuO2_CH3SO2_CH3SO2-m1-quartet.casscf.MB.SpdOrb.4 PuO2_CH3SO2_CH3SO2-m1-quartet.casscf.MB.SpdOrb.8 PuO2_CH3SO2_CH3SO2-m1-quartet.casscf.MB.SpdOrb.15
           PuO2_CH3SO2_CH3SO2-m1-quartet.casscf.MB.SpdOrb.11 PuO2_CH3SO2_CH3SO2-m1-quartet.casscf.MB.SpdOrb.5 PuO2_CH3SO2_CH3SO2-m1-quartet.casscf.MB.SpdOrb.9
           PuO2_CH3SO2_CH3SO2-m1-quartet.casscf.MB.SpdOrb.1 PuO2_CH3SO2_CH3SO2-m1-quartet.casscf.MB.SpdOrb.18 PuO2_CH3SO2_CH3SO2-m1-quartet.casscf.MB.SpdOrb.13
           PuO2_CH3SO2_CH3SO2-m1-quartet.casscf.MB.SpdOrb.16 PuO2_CH3SO2_CH3SO2-m1-quartet.casscf.MB.SpdOrb.6 PuO2_CH3SO2_CH3SO2-m1-quartet.casscf.MB.SpdOrb.12
           PuO2_CH3SO2_CH3SO2-m1-quartet.casscf.MB.SpdOrb.7 PuO2_CH3SO2_CH3SO2-m1-quartet.casscf.MB.SpdOrb.14 PuO2_CH3SO2_CH3SO2-m1-quartet.casscf.MB.SpdOrb.2
           PuO2_CH3SO2_CH3SO2-m1-quartet.casscf.MB.SpdOrb.20 PuO2_CH3SO2_CH3SO2-m1-quartet.casscf.MB.SpdOrb.10 PuO2_CH3SO2_CH3SO2-m1-quartet.casscf.MB.SpdOrb.17
           PuO2_CH3SO2_CH3SO2-m1-quartet.casscf.MB.SpdOrb.19 PuO2_CH3SO2_CH3SO2-m1-quartet.casscf.MB.SpdOrb.3 xmldump
    saved to directory /home/vallet/John-methylsulfonyl/PuO2_CH3SO2_CH3SO2-m1/optg-freq-pbe0/SO-XMS
--- Module rasscf spent 42 seconds ---

>>> COPY PuO2_CH3SO2_CH3SO2-m1-quartet.casscf.MB.RasOrb /home/vallet/John-methylsulfonyl/PuO2_CH3SO2_CH3SO2-m1/optg-freq-pbe0/SO-XMS/PuO2_CH3SO2_CH3SO2-m1-quartet.casscf.MB.RasOrb_doublets

>>> COPY PuO2_CH3SO2_CH3SO2-m1-quartet.casscf.MB.rasscf.molden /home/vallet/John-methylsulfonyl/PuO2_CH3SO2_CH3SO2-m1/optg-freq-pbe0/SO-XMS/PuO2_CH3SO2_CH3SO2-m1-quartet.casscf.MB.rasscf_doublets.molden

    Timing: Wall=204.81 User=1295.68 System=41.54
