   This run of MOLCAS is using the pymolcas driver

                             OPE
                             OPE          NMOL  CASOP  ENMOLC A   SO
                 OPE        NMOLC        AS  OP EN  MO LC     AS  OP
                OPENM       OL CA        SO  PE NM  OL CA     SOP EN
                OP EN      MO   LC       AS  OP ENMOL  CASO   PENMOL
                OP  EN     MO   LC       AS  OP EN     MO     LC ASO
               OP   E  NMOL  C  AS       OP  EN MO     LC     AS  OP
               OP  E   NMO   LC AS        OPEN  MO     LCASOP EN   M
               O  PEN   MO  LCA  SO
            OPE   NMO   L   CAS    OP
        OPENMOL  CASOP     ENMOL   CASOPE
     OPENMOLCA   SOPENMOLCASOPEN   MOLCASOPE
    OPENMOLCAS   OP           EN   MOL    CAS
    OPENMOLCAS       OP  ENM        O     LCA
    OPENMOLCAS    OPEN  MOLCASO     P  E  NMO
    OPENMOLCAS     OP               E  N  MOL
    OPENMOLCA   SO           PENM   O  L  CAS    OPEN    MO    LCAS
    OPENMOLCA   SOP           ENM   O  L  CAS   OP  EN  MOLC  AS   O
    OPENMOLCA   SOPE           NM      O  LCA   S      OP  EN MO
    OPENMOLC                AS         O  PEN   M      OL  CA  SOPE
    OPENMO        LCASOPE  NMOL        C  ASO   P      ENMOLC     AS
    OPE     NMO      LCA  SO     P     E   NM   OL  CA SO  PE N   MO
          OPENMOLCA            SOPE   NMO        LCAS  O    P  ENMO
     OPENMOLCASOPENMOLCASOPENMOLCASOPENMOLCA
        OPENMOLCASOPENMOLCASOPENMOLCASOPE
            OPENMOLCASOPENMOLCASOPENM
               OPENMOLCASOPENMOLCA        version: 18.09
                   OPENMOLCASO
                       OPE                tag: 259-g52797e1-dirty

 OpenMolcas is free software; you can redistribute it and/or modify it
 under the terms of the GNU Lesser General Public License version 2.1.
 OpenMolcas is distributed in the hope that it will be useful, but it
 is provided "as is" and without any express or implied warranties.
 For more details see the full text of the license in the file
 LICENSE or in <http://www.gnu.org/licenses/>.

                 Copyright (C) The OpenMolcas Authors
           For the author list and the recommended citation,
                   consult the file CONTRIBUTORS.md

           *************************************************
           * pymolcas version py2.05                       *
           *   build e639e37c9a57315123c35f99e509df06      *
           *   (after the EMIL interpreter by V. Veryazov) *
           *************************************************

configuration info
------------------
C Compiler ID: Intel
C flags: -I/share/apps/fftw/3.3.8/include -std=gnu99 -mcmodel=large -qopenmp
Fortran Compiler ID: Intel
Fortran flags: -fpp -mcmodel=large -i8 -r8 -heap-arrays -qopenmp
Definitions: _MOLCAS_;_I8_;_LINUX_;_MKL_;_FDE_
Parallel: OFF (GA=OFF)


   ------------------------------------------------------------------------------------------------------------------------------
  |
  |           Project: UO2_CH3SO2_CH3SO2-m1-doublet.rassi-SO-casscf-xmscaspt2.VTZP
  |    Submitted from: /home/vallet/John-sulfinate/U-complexes/UO2_CH3SO2_CH3SO2-m1/optg-freq-pbe0/SO-XMS
  |      Scratch area: /state/partition2/vallet/655587.phlam-s-sakura/UO2_CH3SO2_CH3SO2-m1-doublet.rassi-SO-casscf-xmscaspt2.VTZP
  |   Save outputs to: /home/vallet/John-sulfinate/U-complexes/UO2_CH3SO2_CH3SO2-m1/optg-freq-pbe0/SO-XMS
  |            Molcas: /home/pcmt/OpenMolcas/OpenMolcas-20190114
  |
  | Scratch area is empty
  |
  |    MOLCAS_DRIVER = /home/pcmt/OpenMolcas/OpenMolcas-20190114/sbin/pymolcas
  |   MOLCAS_LICENSE = /home/pcmt/molcas/license
  |    MOLCAS_MOLDEN = ON
  |    MOLCAS_NPROCS = 1
  |    MOLCAS_SOURCE = /home/pcmt/OpenMolcas/OpenMolcas-20190114
  | MOLCAS_STRUCTURE = 0
  |
   ------------------------------------------------------------------------------------------------------------------------------

++ ---------   Input file   ---------

&GATEWAY
   COORD=$HomeDir/UO2_CH3SO2_CH3SO2-m1-doublet.pbe0.optg.xyz
   BASIS=ANO-RCC-VTZP
   Group=Nosym
   ANGM=0.0 0.0 0.0
   RICD

>>> COPY $Project.RunFile $HomeDir

&SEWARD

>>> COPY $HomeDir/UO2_CH3SO2_CH3SO2-m1-doublet.casscf.MB.RunFile RUNFIL1

>>> COPY $Project.RunFile RUNFIL2

>>> COPY $HomeDir/UO2_CH3SO2_CH3SO2-m1-doublet.casscf.MB.RasOrb_doublets INPORB

&EXPBAS

>>> COPY $Project.ExpOrb $HomeDir/$Project.ExpOrb_doublets

>>> COPY $HomeDir/$Project.ExpOrb_doublets INPORB

&RASSCF
   Spin=2
   Symmetry=1
   Nactel=1 0 0
   Inactive=95
   Ras2=4
   CIRoots=4 4 1
   Lumorb

>>> COPY $Project.RasOrb $HomeDir/$Project.RasOrb_doublets

>>> COPY $Project.JobIph $HomeDir/$Project.JobIph_doublets

&CASPT2
    IPEA=0.0
    XMUL= ALL
    THRESHOLDS= 1.0D-09 1.0D-07
    MAXITER=150
    CONVERGENCE=1.0D-6
    IMAG=0.1

>>> COPY $Project.JobMix $HomeDir/$Project.JobMix_doublets

>>> COPY $HomeDir/$Project.JobIph_doublets JOB001

&RASSI
    EJob
    SPINorbit

>>> COPY $HomeDir/$Project.JobMix_doublets JOB001

&RASSI
    EJob
    SPINorbit

-- ----------------------------------

--- Start Module: gateway at Thu Dec  5 09:11:34 2019 ---
 
()()()()()()()()()()()()()()()()()()()()()()()()()()()()()()()()()()()()()()()()()()()()()()()()()()

                                              &GATEWAY

                                   only a single process is used
                       available to each process: 16 GB of memory, 8 threads
()()()()()()()()()()()()()()()()()()()()()()()()()()()()()()()()()()()()()()()()()()()()()()()()()()
 
 
++    Symmetry information:
      ---------------------
 
                    Character Table for C1 
 
                             E  
                    a        1  x, y, xy, Rz, z, xz, Ry, yz, Rx, I
--
 
 
++    Basis set information:
      ----------------------
 
 
      Basis set label: C.ANO-RCC...4S3P2D1F.
 
      Electronic valence basis set:
      ------------------
      Associated Effective Charge   6.000000 au
      Associated Actual Charge      6.000000 au
      Nuclear Model: Point charge
 
      Shell  nPrim  nBasis  Cartesian Spherical Contaminant
         s      14       4        X                  
         p       9       3        X                  
         d       4       2                 X         
         f       3       1                 X         
 
 
      Basis set label: S.ANO-RCC...5S4P2D1F.
 
      Electronic valence basis set:
      ------------------
      Associated Effective Charge  16.000000 au
      Associated Actual Charge     16.000000 au
      Nuclear Model: Point charge
 
      Shell  nPrim  nBasis  Cartesian Spherical Contaminant
         s      17       5        X                  
         p      12       4        X                  
         d       5       2                 X         
         f       4       1                 X         
 
 
      Basis set label: O.ANO-RCC...4S3P2D1F.
 
      Electronic valence basis set:
      ------------------
      Associated Effective Charge   8.000000 au
      Associated Actual Charge      8.000000 au
      Nuclear Model: Point charge
 
      Shell  nPrim  nBasis  Cartesian Spherical Contaminant
         s      14       4        X                  
         p       9       3        X                  
         d       4       2                 X         
         f       3       1                 X         
 
 
      Basis set label: U.ANO-RCC...9S8P6D4F2G1H.
 
      Electronic valence basis set:
      ------------------
      Associated Effective Charge  92.000000 au
      Associated Actual Charge     92.000000 au
      Nuclear Model: Point charge
 
      Shell  nPrim  nBasis  Cartesian Spherical Contaminant
         s      26       9        X                  
         p      23       8        X                  
         d      17       6                 X         
         f      13       4                 X         
         g       5       2                 X         
         h       3       1                 X         
 
 
      Basis set label: O.ANO-RCC...4S3P2D1F.
 
      Electronic valence basis set:
      ------------------
      Associated Effective Charge   8.000000 au
      Associated Actual Charge      8.000000 au
      Nuclear Model: Point charge
 
      Shell  nPrim  nBasis  Cartesian Spherical Contaminant
         s      14       4        X                  
         p       9       3        X                  
         d       4       2                 X         
         f       3       1                 X         
 
 
      Basis set label: S.ANO-RCC...5S4P2D1F.
 
      Electronic valence basis set:
      ------------------
      Associated Effective Charge  16.000000 au
      Associated Actual Charge     16.000000 au
      Nuclear Model: Point charge
 
      Shell  nPrim  nBasis  Cartesian Spherical Contaminant
         s      17       5        X                  
         p      12       4        X                  
         d       5       2                 X         
         f       4       1                 X         
 
 
      Basis set label: C.ANO-RCC...4S3P2D1F.
 
      Electronic valence basis set:
      ------------------
      Associated Effective Charge   6.000000 au
      Associated Actual Charge      6.000000 au
      Nuclear Model: Point charge
 
      Shell  nPrim  nBasis  Cartesian Spherical Contaminant
         s      14       4        X                  
         p       9       3        X                  
         d       4       2                 X         
         f       3       1                 X         
 
 
      Basis set label: O.ANO-RCC...4S3P2D1F.
 
      Electronic valence basis set:
      ------------------
      Associated Effective Charge   8.000000 au
      Associated Actual Charge      8.000000 au
      Nuclear Model: Point charge
 
      Shell  nPrim  nBasis  Cartesian Spherical Contaminant
         s      14       4        X                  
         p       9       3        X                  
         d       4       2                 X         
         f       3       1                 X         
 
 
      Basis set label: H.ANO-RCC...3S2P1D.
 
      Electronic valence basis set:
      ------------------
      Associated Effective Charge   1.000000 au
      Associated Actual Charge      1.000000 au
      Nuclear Model: Point charge
 
      Shell  nPrim  nBasis  Cartesian Spherical Contaminant
         s       8       3        X                  
         p       4       2        X                  
         d       3       1                 X         
--
 
 
++    Molecular structure info:
      -------------------------
 
                    ************************************************ 
                    **** Cartesian Coordinates / Bohr, Angstrom **** 
                    ************************************************ 
 
     Center  Label                x              y              z                     x              y              z
        1      C1               2.812852      -6.892959       0.000000              1.488497      -3.647597       0.000000
        2      S2               4.428172      -3.869632       0.000000              2.343288      -2.047721       0.000000
        3      O3               3.261057      -2.588646       2.326020              1.725677      -1.369852       1.230877
        4      O4               3.261057      -2.588646      -2.326020              1.725677      -1.369852      -1.230877
        5      U5               0.000000       0.000000       0.000000              0.000000       0.000000       0.000000
        6      O6              -2.033345      -2.726899       0.000000             -1.076000      -1.443013       0.000000
        7      O7              -3.261057       2.588646      -2.326020             -1.725677       1.369852      -1.230877
        8      S8              -4.428172       3.869632       0.000000             -2.343288       2.047721       0.000000
        9      C9              -2.812852       6.892959       0.000000             -1.488497       3.647597       0.000000
       10      O10              2.033345       2.726899       0.000000              1.076000       1.443013       0.000000
       11      O11             -3.261057       2.588646       2.326020             -1.725677       1.369852       1.230877
       12      H12             -3.373085       7.921471       1.695621             -1.784960       4.191862       0.897284
       13      H13             -0.793481       6.476095       0.000000             -0.419892       3.427002       0.000000
       14      H14             -3.373085       7.921471      -1.695621             -1.784960       4.191862      -0.897284
       15      H15              3.373085      -7.921471       1.695621              1.784960      -4.191862       0.897284
       16      H16              0.793481      -6.476095       0.000000              0.419892      -3.427002       0.000000
       17      H17              3.373085      -7.921471      -1.695621              1.784960      -4.191862      -0.897284
 
                    ************************************************* 
                    **** InterNuclear Distances / Bohr, Angstrom **** 
                    ************************************************* 
 
     Atom centers         Bohr        Angstrom
   12 H12       9 C9      2.060784        1.090520
   14 H14       9 C9    
   15 H15       1 C1    
   17 H17       1 C1    
   13 H13       9 C9      2.061949        1.091137
   16 H16       1 C1    
    3 O3        2 S2      2.900596        1.534929
    4 O4        2 S2    
    8 S8        7 O7    
   11 O11       8 S8    
   14 H14      12 H12     3.391243        1.794568
   17 H17      15 H15   
    6 O6        5 U5      3.401540        1.800017
   10 O10       5 U5    
   13 H13      12 H12     3.408607        1.803757
   14 H14      13 H13   
   16 H16      15 H15   
   17 H17      16 H16   
    2 S2        1 C1      3.427793        1.813910
    9 C9        8 S8    
   13 H13       8 S8      4.472654        2.366827
   16 H16       2 S2    
   12 H12       8 S8      4.517271        2.390437
   14 H14       8 S8    
   15 H15       2 S2    
   17 H17       2 S2    
    4 O4        3 O3      4.652040        2.461754
   11 O11       7 O7    
   13 H13      10 O10     4.695467        2.484734
   16 H16       6 O6    
    5 U5        3 O3      4.769271        2.523790
    5 U5        4 O4    
    7 O7        5 U5    
   11 O11       5 U5    
    3 O3        1 C1      4.913082        2.599891
    4 O4        1 C1    
    9 C9        7 O7    
   11 O11       9 C9    
   13 H13       7 O7      5.158640        2.729835
   13 H13      11 O11   
   16 H16       3 O3    
   16 H16       4 O4    
   12 H12      11 O11     5.371124        2.842277
   14 H14       7 O7    
   15 H15       3 O3    
   17 H17       4 O4    
--
 
 
            Nuclear Potential Energy           2487.72037084 au
 
--- Stop Module: gateway at Thu Dec  5 09:13:57 2019 /rc=_RC_ALL_IS_WELL_ ---
*** files: UO2_CH3SO2_CH3SO2-m1-doublet.rassi-SO-casscf-xmscaspt2.VTZP.RICDLib xmldump
    saved to directory /home/vallet/John-sulfinate/U-complexes/UO2_CH3SO2_CH3SO2-m1/optg-freq-pbe0/SO-XMS
--- Module gateway spent 2 minutes 23 seconds ---

>>> COPY UO2_CH3SO2_CH3SO2-m1-doublet.rassi-SO-casscf-xmscaspt2.VTZP.RunFile /home/vallet/John-sulfinate/U-complexes/UO2_CH3SO2_CH3SO2-m1/optg-freq-pbe0/SO-XMS

--- Start Module: seward at Thu Dec  5 09:13:57 2019 ---
 
()()()()()()()()()()()()()()()()()()()()()()()()()()()()()()()()()()()()()()()()()()()()()()()()()()

                                              &SEWARD

                                   only a single process is used
                       available to each process: 16 GB of memory, 8 threads
()()()()()()()()()()()()()()()()()()()()()()()()()()()()()()()()()()()()()()()()()()()()()()()()()()
 
               SEWARD will generate:
                  Multipole Moment integrals up to order  2
                  Kinetic Energy integrals
                  Nuclear Attraction integrals (point charge)
                  One-Electron Hamiltonian integrals
                  Velocity integrals
                  Relativistic Douglas-Kroll-Hess integrals:
                    - Parametrization         : EXP
                    - DKH order of Hamiltonian: 2
                    - DKH order of Properties : 0
                         - multipole moment operators
                         - electric potential operators
                         - contact operators
                  Orbital angular momentum around ( 0.0000  0.0000  0.0000 )
                  Atomic mean-field integrals
                  RI decomposed two-electron repulsion integrals stored Cholesky style
                   - acCD auxiliary basis
                   - CD Threshold:   0.10E-03
 
                   Integrals are discarded if absolute value <: 0.10E-13
                   Integral cutoff threshold is set to       <: 0.10E-15
 
            Nuclear Potential Energy           2487.72037084 au
 
 
      Basis set specifications :
      Symmetry species         a  
      Basis functions          512
 
 
 Post_2Center_RI
 Detected lin. dependences in the auxiliary basis.
 # of AuxBas before l. d. removal:   4578
 # of AuxBas after  l. d. removal:   4560
 
 Sorry, Molden does not know how to handle
 functions with angular momentum larger than g
--- Stop Module: seward at Thu Dec  5 09:24:20 2019 /rc=_RC_ALL_IS_WELL_ ---
*** files: UO2_CH3SO2_CH3SO2-m1-doublet.rassi-SO-casscf-xmscaspt2.VTZP.GssOrb UO2_CH3SO2_CH3SO2-m1-doublet.rassi-SO-casscf-xmscaspt2.VTZP.guessorb.h5 xmldump
    saved to directory /home/vallet/John-sulfinate/U-complexes/UO2_CH3SO2_CH3SO2-m1/optg-freq-pbe0/SO-XMS
--- Module seward spent 10 minutes 22 seconds ---

>>> COPY /home/vallet/John-sulfinate/U-complexes/UO2_CH3SO2_CH3SO2-m1/optg-freq-pbe0/SO-XMS/UO2_CH3SO2_CH3SO2-m1-doublet.casscf.MB.RunFile RUNFIL1

>>> COPY UO2_CH3SO2_CH3SO2-m1-doublet.rassi-SO-casscf-xmscaspt2.VTZP.RunFile RUNFIL2

>>> COPY /home/vallet/John-sulfinate/U-complexes/UO2_CH3SO2_CH3SO2-m1/optg-freq-pbe0/SO-XMS/UO2_CH3SO2_CH3SO2-m1-doublet.casscf.MB.RasOrb_doublets INPORB

--- Start Module: expbas at Thu Dec  5 09:24:22 2019 ---
 
()()()()()()()()()()()()()()()()()()()()()()()()()()()()()()()()()()()()()()()()()()()()()()()()()()

                                              &EXPBAS

                                   only a single process is used
                       available to each process: 16 GB of memory, 8 threads
()()()()()()()()()()()()()()()()()()()()()()()()()()()()()()()()()()()()()()()()()()()()()()()()()()
 

 Header on input orbitals file:
* RASSCF average (pseudo-natural) orbitals

 Information from input runfile
           Number of symmetries    1
      Number of basis functions  123

 Information from expanded basis set runfile
           Number of symmetries    1
      Number of basis functions  512
 New orbitals have been built in file EXPORB
--- Stop Module: expbas at Thu Dec  5 09:24:23 2019 /rc=_RC_ALL_IS_WELL_ ---
*** files: UO2_CH3SO2_CH3SO2-m1-doublet.rassi-SO-casscf-xmscaspt2.VTZP.ExpOrb xmldump
    saved to directory /home/vallet/John-sulfinate/U-complexes/UO2_CH3SO2_CH3SO2-m1/optg-freq-pbe0/SO-XMS

>>> COPY UO2_CH3SO2_CH3SO2-m1-doublet.rassi-SO-casscf-xmscaspt2.VTZP.ExpOrb /home/vallet/John-sulfinate/U-complexes/UO2_CH3SO2_CH3SO2-m1/optg-freq-pbe0/SO-XMS/UO2_CH3SO2_CH3SO2-m1-doublet.rassi-SO-casscf-xmscaspt2.VTZP.ExpOrb_doublets

>>> COPY /home/vallet/John-sulfinate/U-complexes/UO2_CH3SO2_CH3SO2-m1/optg-freq-pbe0/SO-XMS/UO2_CH3SO2_CH3SO2-m1-doublet.rassi-SO-casscf-xmscaspt2.VTZP.ExpOrb_doublets INPORB

--- Start Module: rasscf at Thu Dec  5 09:24:23 2019 ---
 
()()()()()()()()()()()()()()()()()()()()()()()()()()()()()()()()()()()()()()()()()()()()()()()()()()

                                              &RASSCF

                                   only a single process is used
                       available to each process: 16 GB of memory, 8 threads
()()()()()()()()()()()()()()()()()()()()()()()()()()()()()()()()()()()()()()()()()()()()()()()()()()
 
 
      Header of the ONEINT file:
      --------------------------
      
      Integrals generated by seward 4.2.0  , Thu Dec  5 09:14:02 2019
 
 
      OrdInt status: non-squared
 
 
      Cartesian coordinates in Angstrom:
      -----------------------------------------------------
      No.  Label        X            Y            Z        
      -----------------------------------------------------
       1   C1         1.48849710  -3.64759700   0.00000000
       2   S2         2.34328780  -2.04772110   0.00000000
       3   O3         1.72567680  -1.36985230   1.23087690
       4   O4         1.72567680  -1.36985230  -1.23087690
       5   U5         0.00000000   0.00000000   0.00000000
       6   O6        -1.07599970  -1.44301300   0.00000000
       7   O7        -1.72567680   1.36985230  -1.23087690
       8   S8        -2.34328780   2.04772110   0.00000000
       9   C9        -1.48849710   3.64759700   0.00000000
      10   O10        1.07599970   1.44301300   0.00000000
      11   O11       -1.72567680   1.36985230   1.23087690
      12   H12       -1.78495980   4.19186180   0.89728420
      13   H13       -0.41989190   3.42700210   0.00000000
      14   H14       -1.78495980   4.19186180  -0.89728420
      15   H15        1.78495980  -4.19186180   0.89728420
      16   H16        0.41989190  -3.42700210   0.00000000
      17   H17        1.78495980  -4.19186180  -0.89728420
      -----------------------------------------------------
      Nuclear repulsion energy = 2487.72037084
 
++    Wave function specifications:
      -----------------------------
 
      Number of closed shell electrons         190
      Number of electrons in active shells       1
      Max number of holes in RAS1 space          0
      Max nr of electrons in RAS3 space          0
      Number of inactive orbitals               95
      Number of active orbitals                  4
      Number of secondary orbitals             413
      Spin quantum number                      0.5
      State symmetry                             1
--
 
++    Orbital specifications:
      -----------------------
 
      Symmetry species                           1
                                                 a
      Frozen orbitals                            0
      Inactive orbitals                         95
      Active orbitals                            4
      RAS1 orbitals                              0
      RAS2 orbitals                              4
      RAS3 orbitals                              0
      Secondary orbitals                       413
      Deleted orbitals                           0
      Number of basis functions                512
--
 
++    CI expansion specifications:
      ----------------------------
 
      Number of CSFs                             4
      Number of determinants                     4
      Number of root(s) required                 4
      Root chosen for geometry opt.              4
      CI roots used                              1     2     3     4
      weights                                0.250 0.250 0.250 0.250
      highest root included in the CI            4
      max. size of the explicit Hamiltonian      4
--
 
++    Optimization specifications:
      ----------------------------
 
      RASSCF algorithm: LK RI/DF
      Maximum number of macro iterations       200
      Maximum number of SX iterations          100
      Threshold for RASSCF energy            0.100E-07
      Threshold for max MO rotation          0.100E+00
      Threshold for max BLB element          0.100E-03
      Level shift parameter                  0.500E+00
      Make Quasi-Newton update
--
 
      The MO-coefficients are taken from the file:
      INPORB                                                                                                                          
      Title:Basis set expanded orbital file EXPORB                                         
 
      Total molecular charge   -1.00
 
      ************************************************************************************************************************
      *                                                                                                                      *
      *                                            Wave function control section                                             *
      *                                                                                                                      *
      ************************************************************************************************************************
 
 
                                         RASSCF iterations: Energy and convergence statistics
                                         ----------------------------------------------------
 
      Iter CI   SX   CI       RASSCF       Energy    max ROT     max BLB   max BLB  Level Ln srch  Step   QN   Walltime
          iter iter root      energy       change     param      element    value   shift minimum  type update hh:mm:ss
 Nr of preliminary CI iterations:   1
      Total energies have been shifted. Add               -29000.00 au
        1   1   18    0  -275.11941072    0.00E+00   0.30E-01   88 244 1 -0.16E+00*  0.55   0.00    SX    NO    0:05:01
        2   1   21    0  -275.97808402   -0.86E+00* -0.32E-01   81 115 1 -0.10E+00*  0.58   0.00    SX    NO    0:03:19
        3   1   21    0  -276.19836290   -0.22E+00* -0.26E-01   81 115 1 -0.76E-01*  0.56   0.00    SX    NO    0:03:14
        4   1   21    0  -276.27156763   -0.73E-01* -0.18E-01   81 115 1 -0.53E-01*  0.57   0.00    SX    NO    0:03:37
        5   1   20    0  -276.29901246   -0.27E-01* -0.22E-01   81 115 1 -0.36E-01*  0.56   2.50    LS   YES    0:03:28
        6   1   20    0  -276.31533542   -0.16E-01* -0.11E-01   89 114 1 -0.17E-01*  0.56   1.35    QN   YES    0:03:26
        7   1   19    0  -276.31882805   -0.35E-02*  0.67E-02   89 114 1 -0.82E-02*  0.57   1.29    QN   YES    0:03:49
        8   1   18    0  -276.31986968   -0.10E-02* -0.29E-02   89 114 1 -0.27E-02*  0.56   1.29    QN   YES    0:03:59
        9   1   17    0  -276.32012666   -0.26E-03*  0.23E-02   81 115 1  0.13E-02*  0.56   1.23    QN   YES    0:04:16
       10   1   15    0  -276.32016767   -0.41E-04*  0.24E-02   81 115 1  0.54E-03*  0.56   1.41    QN   YES    0:04:07
       11   1   13    0  -276.32017931   -0.12E-04*  0.23E-02   69 108 1 -0.23E-03*  0.56   1.42    QN   YES    0:03:57
       12   1   12    0  -276.32018305   -0.37E-05*  0.26E-02   99 107 1 -0.18E-03*  0.56   1.56    QN   YES    0:03:28
       13   1   12    0  -276.32018509   -0.20E-05*  0.33E-02   99 107 1 -0.14E-03*  0.56   1.78    QN   YES    0:04:20
       14   1   12    0  -276.32018671   -0.16E-05* -0.31E-02   69 108 1  0.14E-03*  0.56   1.71    QN   YES    0:04:18
       15   1   11    0  -276.32018780   -0.11E-05*  0.21E-02   95 104 1 -0.10E-03*  0.56   1.60    QN   YES    0:03:44
       16   1   10    0  -276.32018834   -0.54E-06*  0.89E-03   94 103 1 -0.94E-04   0.56   1.49    QN   YES    0:03:34
       17   1   10    0  -276.32018854   -0.20E-06*  0.29E-03   94 103 1 -0.58E-04   0.56   1.49    QN   YES    0:04:04
       18   1    9    0  -276.32018861   -0.68E-07*  0.12E-03   94 103 1 -0.25E-04   0.56   1.45    QN   YES    0:04:15
       19   1    8    0  -276.32018863   -0.22E-07*  0.10E-03   79 104 1  0.12E-04   0.56   1.45    QN   YES    0:04:33
       20   1    7    0  -276.32018864   -0.79E-08   0.95E-04   98 105 1 -0.77E-05   0.56   1.53    QN   YES    0:04:43
      Convergence after 20 iterations
       21   1    7    0  -276.32018864   -0.30E-08   0.95E-04   98 105 1 -0.61E-05   0.56   1.53    QN   YES    0:04:04
 
      ************************************************************************************************************************
                                                      Wave function printout:
                       occupation of active orbitals, and spin coupling of open shells (u,d: Spin up or down)
      ************************************************************************************************************************
 
      Note: transformation to natural orbitals
      has been made, which may change the order of the CSFs.
 
      printout of CI-coefficients larger than  0.05 for root  1
      energy=  -29276.324531
      conf/sym  1111     Coeff  Weight
             1  u000   0.99949 0.99899
 
      printout of CI-coefficients larger than  0.05 for root  2
      energy=  -29276.321560
      conf/sym  1111     Coeff  Weight
             2  0u00   0.69690 0.48567
             3  00u0   0.71716 0.51432
 
      printout of CI-coefficients larger than  0.05 for root  3
      energy=  -29276.321089
      conf/sym  1111     Coeff  Weight
             2  0u00   0.71677 0.51376
             3  00u0  -0.69659 0.48523
 
      printout of CI-coefficients larger than  0.05 for root  4
      energy=  -29276.313575
      conf/sym  1111     Coeff  Weight
             4  000u   1.00000 0.99999
 
      Natural orbitals and occupation numbers for root  1
      sym 1:   1.000000   0.000000   0.000000   0.000000
 
      Natural orbitals and occupation numbers for root  2
      sym 1:  -0.000000   0.000000   1.000000  -0.000000
 
      Natural orbitals and occupation numbers for root  3
      sym 1:  -0.000000   1.000000   0.000000  -0.000000
 
      Natural orbitals and occupation numbers for root  4
      sym 1:  -0.000000   0.000000   0.000000   1.000000
 
      ************************************************************************************************************************
      *                                                                                                                      *
      *                                                    Final results                                                     *
      *                                                                                                                      *
      ************************************************************************************************************************
 
 
++    Wave function specifications:
      -----------------------------
 
      Number of closed shell electrons         190
      Number of electrons in active shells       1
      Max number of holes in RAS1 space          0
      Max nr of electrons in RAS3 space          0
      Number of inactive orbitals               95
      Number of active orbitals                  4
      Number of secondary orbitals             413
      Spin quantum number                      0.5
      State symmetry                             1
--
 
++    Orbital specifications:
      -----------------------
 
      Symmetry species                           1
                                                 a
      Frozen orbitals                            0
      Inactive orbitals                         95
      Active orbitals                            4
      RAS1 orbitals                              0
      RAS2 orbitals                              4
      RAS3 orbitals                              0
      Secondary orbitals                       413
      Deleted orbitals                           0
      Number of basis functions                512
--
 
++    CI expansion specifications:
      ----------------------------
 
      Number of CSFs                             4
      Number of determinants                     4
      Number of root(s) required                 4
      CI roots used                              1     2     3     4
      weights                                0.250 0.250 0.250 0.250
      highest root included in the CI            4
      Root passed to geometry opt.               4
--
 
++    Final optimization conditions:
      ------------------------------
 
      Average CI energy                          -29276.32018864
      RASSCF energy for state  4                 -29276.31357537
      Super-CI energy                                -0.00000000
      RASSCF energy change                           -0.00000000
      Max change in MO coefficients               0.862E-04
      Max non-diagonal density matrix element     0.949E-04
      Maximum BLB matrix element                 -0.612E-05
      (orbital pair  98, 105 in symmetry   1)
      Norm of electronic gradient            0.155E+00
--
 
 
      Final state energy(ies):
      ------------------------
 
::    RASSCF root number  1 Total energy: -29276.32453059
::    RASSCF root number  2 Total energy: -29276.32155992
::    RASSCF root number  3 Total energy: -29276.32108869
::    RASSCF root number  4 Total energy: -29276.31357537
 
++    Molecular orbitals:
      -------------------
 
      Pseudonatural active orbitals and approximate occupation numbers
 
 
      MOLECULAR ORBITALS FOR SYMMETRY SPECIES 1: a  
 
      INDEX  ENERGY  OCCUPATION COEFFICIENTS ...
          1-4260.2153    2.0000                                                                                                           
               125 U5     1s     ( 1.0000)
          2 -804.1816    2.0000                                                                                                           
               126 U5     2s     ( 1.0000)
          3 -674.8528    2.0000                                                                                                           
               134 U5     2px    ( 0.6165) 142 U5     2py    ( 0.7873)
          4 -674.8525    2.0000                                                                                                           
               134 U5     2px    ( 0.7873) 142 U5     2py    (-0.6165)
          5 -674.8522    2.0000                                                                                                           
               150 U5     2pz    ( 1.0000)
          6 -206.2300    2.0000                                                                                                           
               127 U5     3s     ( 1.0000)
          7 -169.6296    2.0000                                                                                                           
               135 U5     3px    ( 0.8039) 143 U5     3py    (-0.5948)
          8 -169.6291    2.0000                                                                                                           
               151 U5     3pz    ( 1.0000)
          9 -169.6235    2.0000                                                                                                           
               135 U5     3px    ( 0.5948) 143 U5     3py    ( 0.8039)
         10 -135.0533    2.0000                                                                                                           
               158 U5     3d2-   ( 0.4757) 170 U5     3d0    ( 0.8672) 182 U5     3d2+   (-0.1472)
         11 -135.0533    2.0000                                                                                                           
               164 U5     3d1-   (-0.5898) 176 U5     3d1+   ( 0.8076)
         12 -135.0512    2.0000                                                                                                           
               158 U5     3d2-   ( 0.2919) 182 U5     3d2+   ( 0.9564)
         13 -135.0511    2.0000                                                                                                           
               164 U5     3d1-   ( 0.8076) 176 U5     3d1+   ( 0.5898)
         14 -135.0501    2.0000                                                                                                           
               158 U5     3d2-   (-0.8298) 170 U5     3d0    ( 0.4979) 182 U5     3d2+   ( 0.2521)
         15  -92.2576    2.0000                                                                                                           
               305 S8     1s     ( 0.9993)
         16  -92.2576    2.0000                                                                                                           
                31 S2     1s     (-0.9993)
         17  -54.2212    2.0000                                                                                                           
               128 U5     4s     ( 1.0000)
         18  -42.0034    2.0000                                                                                                           
               136 U5     4px    ( 0.8042) 144 U5     4py    (-0.5944)
         19  -42.0028    2.0000                                                                                                           
               152 U5     4pz    ( 1.0000)
         20  -41.9918    2.0000                                                                                                           
               136 U5     4px    ( 0.5944) 144 U5     4py    ( 0.8042)
         21  -28.7636    2.0000                                                                                                           
               165 U5     4d1-   (-0.5928) 177 U5     4d1+   ( 0.8054)
         22  -28.7634    2.0000                                                                                                           
               159 U5     4d2-   ( 0.4917) 171 U5     4d0    ( 0.8570) 183 U5     4d2+   (-0.1540)
         23  -28.7574    2.0000                                                                                                           
               159 U5     4d2-   ( 0.2972) 183 U5     4d2+   ( 0.9548)
         24  -28.7573    2.0000                                                                                                           
               165 U5     4d1-   ( 0.8054) 177 U5     4d1+   ( 0.5928)
         25  -28.7547    2.0000                                                                                                           
               159 U5     4d2-   (-0.8184) 171 U5     4d0    ( 0.5153) 183 U5     4d2+   ( 0.2542)
         26  -20.4118    2.0000                                                                                                           
                65 O3     1s     ( 0.5023)  95 O4     1s     (-0.5023) 275 O7     1s     (-0.4972) 399 O11    1s     ( 0.4971)
      
         27  -20.4118    2.0000                                                                                                           
                65 O3     1s     (-0.4972)  95 O4     1s     ( 0.4971) 275 O7     1s     (-0.5023) 399 O11    1s     ( 0.5022)
      
         28  -20.4118    2.0000                                                                                                           
                65 O3     1s     (-0.5016)  95 O4     1s     (-0.5016) 275 O7     1s     ( 0.4978) 399 O11    1s     ( 0.4979)
      
         29  -20.4118    2.0000                                                                                                           
                65 O3     1s     ( 0.4979)  95 O4     1s     ( 0.4979) 275 O7     1s     ( 0.5016) 399 O11    1s     ( 0.5017)
      
         30  -20.3662    2.0000                                                                                                           
               245 O6     1s     ( 0.7072) 369 O10    1s     ( 0.7068)
         31  -20.3662    2.0000                                                                                                           
               245 O6     1s     (-0.7067) 369 O10    1s     ( 0.7071)
         32  -14.9754    2.0000                                                                                                           
               192 U5     4f2-   ( 0.5654) 200 U5     4f0    ( 0.8054) 208 U5     4f2+   (-0.1778)
         33  -14.9752    2.0000                                                                                                           
               188 U5     4f3-   ( 0.2423) 196 U5     4f1-   (-0.5671) 204 U5     4f1+   ( 0.7825)
         34  -14.9715    2.0000                                                                                                           
               188 U5     4f3-   (-0.1400) 196 U5     4f1-   ( 0.7446) 204 U5     4f1+   ( 0.5433) 212 U5     4f3+   ( 0.3617)
      
         35  -14.9714    2.0000                                                                                                           
               192 U5     4f2-   ( 0.2914) 208 U5     4f2+   ( 0.9566)
         36  -14.9713    2.0000                                                                                                           
               188 U5     4f3-   ( 0.3142) 196 U5     4f1-   ( 0.3150) 204 U5     4f1+   ( 0.2262) 212 U5     4f3+   (-0.8665)
      
         37  -14.9627    2.0000                                                                                                           
               188 U5     4f3-   ( 0.9072) 196 U5     4f1-   ( 0.1573) 204 U5     4f1+   (-0.2035) 212 U5     4f3+   ( 0.3330)
      
         38  -14.9627    2.0000                                                                                                           
               192 U5     4f2-   (-0.7716) 200 U5     4f0    ( 0.5927) 208 U5     4f2+   ( 0.2309)
         39  -12.5443    2.0000                                                                                                           
               129 U5     5s     ( 1.0004)
         40  -11.1290    2.0000                                                                                                           
                 1 C1     1s     (-0.9359) 339 C9     1s     ( 0.3551)
         41  -11.1290    2.0000                                                                                                           
                 1 C1     1s     ( 0.3550) 339 C9     1s     ( 0.9359)
         42   -8.9985    2.0000                                                                                                           
                32 S2     2s     ( 0.6459) 306 S8     2s     ( 0.7621)
         43   -8.9985    2.0000                                                                                                           
                32 S2     2s     (-0.7622) 306 S8     2s     ( 0.6460)
         44   -8.6394    2.0000                                                                                                           
               137 U5     5px    ( 0.6098) 145 U5     5py    ( 0.7919)
         45   -8.6334    2.0000                                                                                                           
               137 U5     5px    ( 0.7923) 145 U5     5py    (-0.6100)
         46   -8.6316    2.0000                                                                                                           
               153 U5     5pz    ( 1.0000)
         47   -6.6309    2.0000                                                                                                           
                44 S2     2pz    ( 0.6759) 318 S8     2pz    ( 0.7378)
         48   -6.6309    2.0000                                                                                                           
                44 S2     2pz    (-0.7378) 318 S8     2pz    ( 0.6758)
         49   -6.6307    2.0000                                                                                                           
                40 S2     2py    ( 0.5156) 314 S8     2py    ( 0.8537)
         50   -6.6307    2.0000                                                                                                           
                40 S2     2py    (-0.8537) 314 S8     2py    ( 0.5156)
         51   -6.6289    2.0000                                                                                                           
                36 S2     2px    (-0.6346) 310 S8     2px    ( 0.7685)
         52   -6.6289    2.0000                                                                                                           
                36 S2     2px    ( 0.7685) 310 S8     2px    ( 0.6346)
         53   -4.1170    2.0000                                                                                                           
               160 U5     5d2-   (-0.8159) 172 U5     5d0    ( 0.5225) 184 U5     5d2+   ( 0.2416)
         54   -4.1065    2.0000                                                                                                           
               166 U5     5d1-   ( 0.7942) 178 U5     5d1+   ( 0.6072)
         55   -4.1064    2.0000                                                                                                           
               160 U5     5d2-   ( 0.2831) 184 U5     5d2+   ( 0.9588)
         56   -4.0984    2.0000                                                                                                           
               160 U5     5d2-   ( 0.5018) 172 U5     5d0    ( 0.8523) 184 U5     5d2+   (-0.1471)
         57   -4.0978    2.0000                                                                                                           
               166 U5     5d1-   (-0.6073) 178 U5     5d1+   ( 0.7943)
         58   -2.0418    2.0000                                                                                                           
               130 U5     6s     ( 0.9669)
         59   -1.2903    2.0000                                                                                                           
               138 U5     6px    ( 0.3026) 146 U5     6py    ( 0.4315) 246 O6     2s     (-0.4378) 370 O10    2s     ( 0.4378)
      
         60   -1.2724    2.0000                                                                                                           
                33 S2     3s     (-0.2393)  66 O3     2s     (-0.3431)  96 O4     2s     (-0.3431) 138 U5     6px    (-0.1434)
               276 O7     2s     ( 0.3431) 307 S8     3s     ( 0.2393) 400 O11    2s     ( 0.3431)
         61   -1.2657    2.0000                                                                                                           
                33 S2     3s     ( 0.2571)  66 O3     2s     ( 0.3453)  96 O4     2s     ( 0.3453) 276 O7     2s     ( 0.3453)
               307 S8     3s     ( 0.2571) 400 O11    2s     ( 0.3453)
         62   -1.1615    2.0000                                                                                                           
                45 S2     3pz    ( 0.1429)  66 O3     2s     ( 0.4143)  96 O4     2s     (-0.4143) 154 U5     6pz    ( 0.1221)
               276 O7     2s     (-0.4143) 319 S8     3pz    ( 0.1429) 400 O11    2s     ( 0.4143)
         63   -1.1583    2.0000                                                                                                           
                45 S2     3pz    (-0.1436)  66 O3     2s     (-0.4240)  96 O4     2s     ( 0.4240) 276 O7     2s     (-0.4240)
               319 S8     3pz    ( 0.1436) 400 O11    2s     ( 0.4240)
         64   -1.0647    2.0000                                                                                                           
               130 U5     6s     (-0.2528) 161 U5     6d2-   ( 0.1103) 246 O6     2s     ( 0.6420) 370 O10    2s     ( 0.6420)
      
         65   -0.9701    2.0000                                                                                                           
                33 S2     3s     (-0.1398) 138 U5     6px    ( 0.7226) 146 U5     6py    (-0.5399) 307 S8     3s     ( 0.1398)
      
         66   -0.9645    2.0000                                                                                                           
               154 U5     6pz    ( 0.9557)
         67   -0.8858    2.0000                                                                                                           
                 2 C1     2s     ( 0.4281)  33 S2     3s     ( 0.2183)  41 S2     3py    (-0.1503)  66 O3     2s     (-0.1528)
                96 O4     2s     (-0.1528) 276 O7     2s     (-0.1528) 307 S8     3s     ( 0.2183) 315 S8     3py    ( 0.1503)
               340 C9     2s     ( 0.4281) 400 O11    2s     (-0.1528)
         68   -0.8808    2.0000                                                                                                           
                 2 C1     2s     (-0.4200)  33 S2     3s     (-0.1835)  41 S2     3py    ( 0.1506)  66 O3     2s     ( 0.1579)
                96 O4     2s     ( 0.1579) 138 U5     6px    (-0.2009) 146 U5     6py    ( 0.1269) 276 O7     2s     (-0.1579)
               307 S8     3s     ( 0.1835) 315 S8     3py    ( 0.1506) 340 C9     2s     ( 0.4200) 400 O11    2s     (-0.1579)
      
         69   -0.7542    2.0000                                                                                                           
               138 U5     6px    (-0.4206) 146 U5     6py    (-0.5725) 246 O6     2s     (-0.5512) 249 O6     2px    ( 0.1043)
               252 O6     2py    ( 0.1473) 370 O10    2s     ( 0.5512) 373 O10    2px    ( 0.1043) 376 O10    2py    ( 0.1473)
      
         70   -0.6967    2.0000                                                                                                           
                 2 C1     2s     ( 0.2273)   8 C1     2py    (-0.1119)  33 S2     3s     (-0.4620)  66 O3     2s     ( 0.2680)
                75 O3     2pz    ( 0.1075)  96 O4     2s     ( 0.2680) 105 O4     2pz    (-0.1075) 276 O7     2s     ( 0.2680)
               285 O7     2pz    (-0.1075) 307 S8     3s     (-0.4620) 340 C9     2s     ( 0.2273) 346 C9     2py    ( 0.1119)
               400 O11    2s     ( 0.2680) 409 O11    2pz    ( 0.1075)
         71   -0.6906    2.0000                                                                                                           
                 2 C1     2s     (-0.2200)   8 C1     2py    ( 0.1140)  33 S2     3s     ( 0.4585)  66 O3     2s     (-0.2856)
                75 O3     2pz    (-0.1194)  96 O4     2s     (-0.2856) 105 O4     2pz    ( 0.1194) 138 U5     6px    ( 0.1241)
               276 O7     2s     ( 0.2856) 285 O7     2pz    (-0.1194) 307 S8     3s     (-0.4585) 340 C9     2s     ( 0.2200)
               346 C9     2py    ( 0.1140) 400 O11    2s     ( 0.2856) 409 O11    2pz    ( 0.1194)
         72   -0.5172    2.0000                                                                                                           
                 5 C1     2px    ( 0.1597)   8 C1     2py    (-0.1682)  37 S2     3px    ( 0.2648)  69 O3     2px    ( 0.1812)
                75 O3     2pz    ( 0.1434)  99 O4     2px    ( 0.1812) 105 O4     2pz    (-0.1434) 279 O7     2px    (-0.1812)
               285 O7     2pz    (-0.1434) 311 S8     3px    (-0.2648) 343 C9     2px    (-0.1597) 346 C9     2py    ( 0.1682)
               403 O11    2px    (-0.1812) 409 O11    2pz    ( 0.1434) 429 H12    1s     ( 0.1133) 443 H13    1s     (-0.1716)
               457 H14    1s     ( 0.1133) 471 H15    1s     ( 0.1133) 485 H16    1s     (-0.1716) 499 H17    1s     ( 0.1133)
      
         73   -0.5091    2.0000                                                                                                           
                 5 C1     2px    ( 0.1598)   8 C1     2py    (-0.2047)  37 S2     3px    ( 0.2654)  69 O3     2px    ( 0.1756)
                72 O3     2py    ( 0.1163)  99 O4     2px    ( 0.1756) 102 O4     2py    ( 0.1163) 279 O7     2px    ( 0.1756)
               282 O7     2py    ( 0.1163) 311 S8     3px    ( 0.2654) 343 C9     2px    ( 0.1598) 346 C9     2py    (-0.2047)
               403 O11    2px    ( 0.1756) 406 O11    2py    ( 0.1163) 429 H12    1s     (-0.1308) 443 H13    1s     ( 0.1830)
               457 H14    1s     (-0.1308) 471 H15    1s     ( 0.1308) 485 H16    1s     (-0.1830) 499 H17    1s     ( 0.1308)
      
         74   -0.5089    2.0000                                                                                                           
                11 C1     2pz    (-0.2114)  45 S2     3pz    (-0.2580)  66 O3     2s     ( 0.1847)  69 O3     2px    (-0.1566)
                72 O3     2py    ( 0.2085)  75 O3     2pz    ( 0.1114)  96 O4     2s     (-0.1847)  99 O4     2px    ( 0.1566)
               102 O4     2py    (-0.2085) 105 O4     2pz    ( 0.1114) 276 O7     2s     ( 0.1847) 279 O7     2px    ( 0.1566)
               282 O7     2py    (-0.2085) 285 O7     2pz    (-0.1114) 319 S8     3pz    ( 0.2580) 349 C9     2pz    ( 0.2114)
               400 O11    2s     (-0.1847) 403 O11    2px    (-0.1566) 406 O11    2py    ( 0.2085) 409 O11    2pz    (-0.1114)
               429 H12    1s     ( 0.1601) 457 H14    1s     (-0.1601) 471 H15    1s     (-0.1601) 499 H17    1s     ( 0.1601)
      
         75   -0.5009    2.0000                                                                                                           
                11 C1     2pz    ( 0.2482)  45 S2     3pz    ( 0.2403)  66 O3     2s     (-0.1814)  69 O3     2px    ( 0.1237)
                72 O3     2py    (-0.1930)  75 O3     2pz    (-0.1137)  96 O4     2s     ( 0.1814)  99 O4     2px    (-0.1237)
               102 O4     2py    ( 0.1930) 105 O4     2pz    (-0.1137) 154 U5     6pz    ( 0.1147) 276 O7     2s     ( 0.1814)
               279 O7     2px    ( 0.1237) 282 O7     2py    (-0.1930) 285 O7     2pz    (-0.1137) 319 S8     3pz    ( 0.2403)
               349 C9     2pz    ( 0.2482) 400 O11    2s     (-0.1814) 403 O11    2px    (-0.1237) 406 O11    2py    ( 0.1930)
               409 O11    2pz    (-0.1137) 429 H12    1s     ( 0.1883) 457 H14    1s     (-0.1883) 471 H15    1s     ( 0.1883)
               499 H17    1s     (-0.1883)
         76   -0.4991    2.0000                                                                                                           
                 5 C1     2px    ( 0.1047)   8 C1     2py    ( 0.1708)  41 S2     3py    (-0.3014)  66 O3     2s     ( 0.1394)
                72 O3     2py    (-0.1537)  75 O3     2pz    ( 0.2430)  96 O4     2s     ( 0.1394) 102 O4     2py    (-0.1537)
               105 O4     2pz    (-0.2430) 276 O7     2s     ( 0.1394) 282 O7     2py    ( 0.1537) 285 O7     2pz    (-0.2430)
               315 S8     3py    ( 0.3014) 343 C9     2px    (-0.1047) 346 C9     2py    (-0.1708) 400 O11    2s     ( 0.1394)
               406 O11    2py    ( 0.1537) 409 O11    2pz    ( 0.2430)
         77   -0.4938    2.0000                                                                                                           
                 5 C1     2px    (-0.1723)   8 C1     2py    (-0.1341)  41 S2     3py    ( 0.3151)  66 O3     2s     (-0.1395)
                72 O3     2py    ( 0.1158)  75 O3     2pz    (-0.2474)  96 O4     2s     (-0.1395) 102 O4     2py    ( 0.1158)
               105 O4     2pz    ( 0.2474) 276 O7     2s     ( 0.1395) 282 O7     2py    ( 0.1158) 285 O7     2pz    (-0.2474)
               315 S8     3py    ( 0.3151) 343 C9     2px    (-0.1723) 346 C9     2py    (-0.1341) 400 O11    2s     ( 0.1395)
               406 O11    2py    ( 0.1158) 409 O11    2pz    ( 0.2474) 443 H13    1s     (-0.1155) 485 H16    1s     ( 0.1155)
      
         78   -0.4565    2.0000                                                                                                           
                11 C1     2pz    (-0.3058)  45 S2     3pz    ( 0.1874)  66 O3     2s     (-0.1150)  69 O3     2px    ( 0.1837)
                75 O3     2pz    (-0.1070)  96 O4     2s     ( 0.1150)  99 O4     2px    (-0.1837) 105 O4     2pz    (-0.1070)
               276 O7     2s     (-0.1150) 279 O7     2px    (-0.1837) 285 O7     2pz    ( 0.1070) 319 S8     3pz    (-0.1874)
               349 C9     2pz    ( 0.3058) 400 O11    2s     ( 0.1150) 403 O11    2px    ( 0.1837) 409 O11    2pz    ( 0.1070)
               429 H12    1s     ( 0.2474) 457 H14    1s     (-0.2474) 471 H15    1s     (-0.2474) 499 H17    1s     ( 0.2474)
      
         79   -0.4514    2.0000                                                                                                           
                11 C1     2pz    ( 0.2784)  45 S2     3pz    (-0.2270)  66 O3     2s     ( 0.1507)  69 O3     2px    (-0.1859)
                75 O3     2pz    ( 0.1419)  96 O4     2s     (-0.1507)  99 O4     2px    ( 0.1859) 105 O4     2pz    ( 0.1419)
               276 O7     2s     (-0.1507) 279 O7     2px    (-0.1859) 285 O7     2pz    ( 0.1419) 319 S8     3pz    (-0.2270)
               349 C9     2pz    ( 0.2784) 400 O11    2s     ( 0.1507) 403 O11    2px    ( 0.1859) 409 O11    2pz    ( 0.1419)
               429 H12    1s     ( 0.2268) 457 H14    1s     (-0.2268) 471 H15    1s     ( 0.2268) 499 H17    1s     (-0.2268)
      
         80   -0.4398    2.0000                                                                                                           
                 5 C1     2px    ( 0.3099)  37 S2     3px    (-0.1458)  69 O3     2px    (-0.2054)  75 O3     2pz    (-0.1360)
                99 O4     2px    (-0.2054) 105 O4     2pz    ( 0.1360) 279 O7     2px    ( 0.2054) 285 O7     2pz    ( 0.1360)
               311 S8     3px    ( 0.1458) 343 C9     2px    (-0.3099) 403 O11    2px    ( 0.2054) 409 O11    2pz    (-0.1360)
               429 H12    1s     ( 0.1126) 443 H13    1s     (-0.2902) 457 H14    1s     ( 0.1126) 471 H15    1s     ( 0.1126)
               485 H16    1s     (-0.2902) 499 H17    1s     ( 0.1126)
         81   -0.4317    2.0000                                                                                                           
                 5 C1     2px    (-0.2748)  33 S2     3s     ( 0.1139)  37 S2     3px    ( 0.2141)  69 O3     2px    ( 0.1950)
                75 O3     2pz    ( 0.1686)  99 O4     2px    ( 0.1950) 105 O4     2pz    (-0.1686) 279 O7     2px    ( 0.1950)
               285 O7     2pz    ( 0.1686) 307 S8     3s     (-0.1139) 311 S8     3px    ( 0.2141) 343 C9     2px    (-0.2748)
               403 O11    2px    ( 0.1950) 409 O11    2pz    (-0.1686) 429 H12    1s     ( 0.1162) 443 H13    1s     (-0.2689)
               457 H14    1s     ( 0.1162) 471 H15    1s     (-0.1162) 485 H16    1s     ( 0.2689) 499 H17    1s     (-0.1162)
      
         82   -0.3721    2.0000                                                                                                           
                 8 C1     2py    ( 0.1511)  37 S2     3px    ( 0.1390)  41 S2     3py    (-0.1929)  72 O3     2py    ( 0.2607)
               102 O4     2py    ( 0.2607) 161 U5     6d2-   (-0.1654) 185 U5     6d2+   ( 0.1550) 246 O6     2s     ( 0.1219)
               249 O6     2px    (-0.3426) 252 O6     2py    (-0.1294) 282 O7     2py    (-0.2607) 311 S8     3px    (-0.1390)
               315 S8     3py    ( 0.1929) 346 C9     2py    (-0.1511) 370 O10    2s     ( 0.1219) 373 O10    2px    ( 0.3426)
               376 O10    2py    ( 0.1294) 406 O11    2py    (-0.2607)
         83   -0.3707    2.0000                                                                                                           
                69 O3     2px    ( 0.2594)  72 O3     2py    ( 0.2106)  99 O4     2px    (-0.2594) 102 O4     2py    (-0.2106)
               167 U5     6d1-   ( 0.1619) 255 O6     2pz    (-0.3794) 279 O7     2px    (-0.2594) 282 O7     2py    (-0.2106)
               379 O10    2pz    ( 0.3794) 403 O11    2px    ( 0.2594) 406 O11    2py    ( 0.2106)
         84   -0.3534    2.0000                                                                                                           
                69 O3     2px    ( 0.3710)  72 O3     2py    ( 0.2779)  99 O4     2px    (-0.3710) 102 O4     2py    (-0.2779)
               279 O7     2px    ( 0.3710) 282 O7     2py    ( 0.2779) 403 O11    2px    (-0.3710) 406 O11    2py    (-0.2779)
      
         85   -0.3496    2.0000                                                                                                           
                37 S2     3px    (-0.1365) 130 U5     6s     (-0.1307) 161 U5     6d2-   ( 0.1929) 185 U5     6d2+   ( 0.1464)
               246 O6     2s     (-0.1157) 249 O6     2px    (-0.1872) 252 O6     2py    ( 0.5597) 311 S8     3px    ( 0.1365)
               370 O10    2s     (-0.1157) 373 O10    2px    ( 0.1872) 376 O10    2py    (-0.5597)
         86   -0.3377    2.0000                                                                                                           
                45 S2     3pz    ( 0.1076)  69 O3     2px    (-0.2555)  75 O3     2pz    (-0.3205)  99 O4     2px    ( 0.2555)
               105 O4     2pz    (-0.3205) 179 U5     6d1+   ( 0.1337) 255 O6     2pz    (-0.3182) 279 O7     2px    ( 0.2555)
               285 O7     2pz    ( 0.3205) 319 S8     3pz    (-0.1076) 379 O10    2pz    ( 0.3182) 403 O11    2px    (-0.2555)
               409 O11    2pz    ( 0.3205)
         87   -0.3375    2.0000                                                                                                           
                 8 C1     2py    ( 0.1692)  37 S2     3px    ( 0.1034)  41 S2     3py    (-0.2144)  52 S2     3d0    (-0.1326)
                72 O3     2py    ( 0.3708) 102 O4     2py    ( 0.3708) 189 U5     5f3-   (-0.1107) 252 O6     2py    ( 0.1442)
               282 O7     2py    ( 0.3708) 311 S8     3px    ( 0.1034) 315 S8     3py    (-0.2144) 326 S8     3d0    ( 0.1326)
               346 C9     2py    ( 0.1692) 376 O10    2py    ( 0.1442) 406 O11    2py    ( 0.3708)
         88   -0.3288    2.0000                                                                                                           
                37 S2     3px    (-0.1492)  41 S2     3py    ( 0.1283)  72 O3     2py    (-0.2527) 102 O4     2py    (-0.2527)
               130 U5     6s     ( 0.2124) 173 U5     6d0    ( 0.1143) 185 U5     6d2+   ( 0.1259) 246 O6     2s     ( 0.1276)
               249 O6     2px    (-0.4590) 252 O6     2py    (-0.1626) 282 O7     2py    ( 0.2527) 311 S8     3px    ( 0.1492)
               315 S8     3py    (-0.1283) 370 O10    2s     ( 0.1276) 373 O10    2px    ( 0.4590) 376 O10    2py    ( 0.1626)
               406 O11    2py    ( 0.2527)
         89   -0.3273    2.0000                                                                                                           
                69 O3     2px    ( 0.1058)  72 O3     2py    ( 0.3205)  75 O3     2pz    (-0.2322)  99 O4     2px    (-0.1058)
               102 O4     2py    (-0.3205) 105 O4     2pz    (-0.2322) 167 U5     6d1-   (-0.1308) 255 O6     2pz    ( 0.3424)
               279 O7     2px    (-0.1058) 282 O7     2py    (-0.3205) 285 O7     2pz    ( 0.2322) 379 O10    2pz    (-0.3424)
               403 O11    2px    ( 0.1058) 406 O11    2py    ( 0.3205) 409 O11    2pz    ( 0.2322)
         90   -0.3267    2.0000                                                                                                           
                69 O3     2px    ( 0.1176)  72 O3     2py    (-0.2572)  75 O3     2pz    ( 0.3665)  99 O4     2px    (-0.1176)
               102 O4     2py    ( 0.2572) 105 O4     2pz    ( 0.3665) 193 U5     5f2-   ( 0.1119) 255 O6     2pz    ( 0.1882)
               279 O7     2px    ( 0.1176) 282 O7     2py    (-0.2572) 285 O7     2pz    ( 0.3665) 379 O10    2pz    ( 0.1882)
               403 O11    2px    (-0.1176) 406 O11    2py    ( 0.2572) 409 O11    2pz    ( 0.3665)
         91   -0.3047    2.0000                                                                                                           
                75 O3     2pz    ( 0.1128) 105 O4     2pz    ( 0.1128) 154 U5     6pz    ( 0.2783) 193 U5     5f2-   (-0.1695)
               201 U5     5f0    ( 0.1711) 255 O6     2pz    (-0.5977) 285 O7     2pz    ( 0.1128) 379 O10    2pz    (-0.5977)
               409 O11    2pz    ( 0.1128)
         92   -0.3043    2.0000                                                                                                           
                72 O3     2py    ( 0.1022) 102 O4     2py    ( 0.1022) 138 U5     6px    (-0.2498) 146 U5     6py    ( 0.1995)
               189 U5     5f3-   ( 0.2064) 213 U5     5f3+   ( 0.1005) 249 O6     2px    ( 0.5010) 252 O6     2py    (-0.3442)
               282 O7     2py    ( 0.1022) 373 O10    2px    ( 0.5010) 376 O10    2py    (-0.3442) 406 O11    2py    ( 0.1022)
      
         93   -0.2662    2.0000                                                                                                           
                33 S2     3s     (-0.1097)  37 S2     3px    (-0.2348)  69 O3     2px    ( 0.1375)  99 O4     2px    ( 0.1375)
               138 U5     6px    ( 0.3081) 146 U5     6py    ( 0.3071) 189 U5     5f3-   (-0.1407) 197 U5     5f1-   ( 0.2736)
               205 U5     5f1+   ( 0.1968) 213 U5     5f3+   ( 0.3989) 249 O6     2px    ( 0.2643) 252 O6     2py    ( 0.3864)
               279 O7     2px    ( 0.1375) 307 S8     3s     ( 0.1097) 311 S8     3px    (-0.2348) 373 O10    2px    ( 0.2643)
               376 O10    2py    ( 0.3864) 403 O11    2px    ( 0.1375)
         94   -0.2351    2.0000                                                                                                           
                 5 C1     2px    (-0.1365)   8 C1     2py    (-0.1726)  33 S2     3s     ( 0.2094)  37 S2     3px    ( 0.4580)
                69 O3     2px    (-0.3304)  72 O3     2py    (-0.1359)  99 O4     2px    (-0.3304) 102 O4     2py    (-0.1359)
               252 O6     2py    ( 0.1422) 279 O7     2px    ( 0.3304) 282 O7     2py    ( 0.1359) 307 S8     3s     ( 0.2094)
               311 S8     3px    (-0.4580) 343 C9     2px    ( 0.1365) 346 C9     2py    ( 0.1726) 376 O10    2py    (-0.1422)
               403 O11    2px    ( 0.3304) 406 O11    2py    ( 0.1359)
         95   -0.2277    2.0000                                                                                                           
                 5 C1     2px    ( 0.1109)   8 C1     2py    ( 0.1568)  33 S2     3s     (-0.1958)  37 S2     3px    (-0.4189)
                69 O3     2px    ( 0.3301)  72 O3     2py    ( 0.1056)  99 O4     2px    ( 0.3301) 102 O4     2py    ( 0.1056)
               146 U5     6py    (-0.2599) 197 U5     5f1-   (-0.1307) 205 U5     5f1+   (-0.1157) 213 U5     5f3+   (-0.1763)
               249 O6     2px    (-0.1507) 252 O6     2py    (-0.1789) 279 O7     2px    ( 0.3301) 282 O7     2py    ( 0.1056)
               307 S8     3s     ( 0.1958) 311 S8     3px    (-0.4189) 343 C9     2px    ( 0.1109) 346 C9     2py    ( 0.1568)
               373 O10    2px    (-0.1507) 376 O10    2py    (-0.1789) 403 O11    2px    ( 0.3301) 406 O11    2py    ( 0.1056)
      
         96    0.0000    0.2500                                                                                                           
               189 U5     5f3-   ( 0.1984) 197 U5     5f1-   ( 0.6664) 205 U5     5f1+   ( 0.4134) 213 U5     5f3+   (-0.5806)
      
         97    0.0000    0.2500                                                                                                           
               189 U5     5f3-   (-0.1792) 193 U5     5f2-   ( 0.1758) 197 U5     5f1-   ( 0.3817) 205 U5     5f1+   (-0.5768)
               209 U5     5f2+   ( 0.6709)
         98    0.0000    0.2500                                                                                                           
               189 U5     5f3-   ( 0.1737) 193 U5     5f2-   ( 0.1810) 197 U5     5f1-   (-0.3723) 205 U5     5f1+   ( 0.5597)
               209 U5     5f2+   ( 0.6904)
         99    0.0000    0.2500                                                                                                           
               193 U5     5f2-   ( 0.5261) 201 U5     5f0    ( 0.8385) 209 U5     5f2+   (-0.1014)
        100    0.1429    0.0000                                                                                                           
                 1 C1     1s     ( 0.3390)   2 C1     2s     ( 2.0053)   3 C1     3s     ( 1.0369)   4 C1     4s     ( 0.1383)
                 5 C1     2px    ( 0.2387)   6 C1     3px    ( 0.1472)   8 C1     2py    (-0.4900)   9 C1     3py    (-0.2906)
                33 S2     3s     (-0.1139)  37 S2     3px    ( 0.1834)  38 S2     4px    ( 0.1128)  41 S2     3py    (-0.1468)
                42 S2     4py    (-0.2134) 138 U5     6px    ( 0.3143) 139 U5     7px    ( 0.6792) 140 U5     8px    ( 0.1428)
               146 U5     6py    (-0.1215) 147 U5     7py    (-0.3747) 148 U5     8py    (-0.1170) 307 S8     3s     ( 0.1139)
               311 S8     3px    ( 0.1834) 312 S8     4px    ( 0.1128) 315 S8     3py    (-0.1468) 316 S8     4py    (-0.2134)
               339 C9     1s     (-0.3390) 340 C9     2s     (-2.0053) 341 C9     3s     (-1.0369) 342 C9     4s     (-0.1383)
               343 C9     2px    ( 0.2387) 344 C9     3px    ( 0.1472) 346 C9     2py    (-0.4900) 347 C9     3py    (-0.2906)
               429 H12    1s     ( 1.3437) 430 H12    2s     ( 1.1293) 434 H12    2py    (-0.1821) 435 H12    3py    (-0.1192)
               436 H12    2pz    (-0.2688) 437 H12    3pz    (-0.1674) 443 H13    1s     (-0.3256) 444 H13    2s     (-0.5044)
               445 H13    3s     (-0.1435) 457 H14    1s     ( 1.3437) 458 H14    2s     ( 1.1293) 462 H14    2py    (-0.1821)
               463 H14    3py    (-0.1192) 464 H14    2pz    ( 0.2688) 465 H14    3pz    ( 0.1674) 471 H15    1s     (-1.3437)
               472 H15    2s     (-1.1293) 476 H15    2py    (-0.1821) 477 H15    3py    (-0.1192) 478 H15    2pz    ( 0.2688)
               479 H15    3pz    ( 0.1674) 485 H16    1s     ( 0.3256) 486 H16    2s     ( 0.5044) 487 H16    3s     ( 0.1435)
               499 H17    1s     (-1.3437) 500 H17    2s     (-1.1293) 504 H17    2py    (-0.1821) 505 H17    3py    (-0.1192)
               506 H17    2pz    (-0.2688) 507 H17    3pz    (-0.1674)
        101    0.1439    0.0000                                                                                                           
                 1 C1     1s     (-0.3441)   2 C1     2s     (-2.0413)   3 C1     3s     (-1.0613)   4 C1     4s     (-0.1426)
                 5 C1     2px    (-0.2504)   6 C1     3px    (-0.1534)   8 C1     2py    ( 0.4932)   9 C1     3py    ( 0.2906)
                37 S2     3px    (-0.1705)  38 S2     4px    (-0.1110)  42 S2     4py    ( 0.1592) 130 U5     6s     (-0.1751)
               131 U5     7s     (-0.4381) 161 U5     6d2-   ( 0.2112) 162 U5     7d2-   ( 0.1485) 311 S8     3px    ( 0.1705)
               312 S8     4px    ( 0.1110) 316 S8     4py    (-0.1592) 339 C9     1s     (-0.3441) 340 C9     2s     (-2.0413)
               341 C9     3s     (-1.0613) 342 C9     4s     (-0.1426) 343 C9     2px    ( 0.2504) 344 C9     3px    ( 0.1534)
               346 C9     2py    (-0.4932) 347 C9     3py    (-0.2906) 429 H12    1s     ( 1.3571) 430 H12    2s     ( 1.1373)
               434 H12    2py    (-0.1800) 435 H12    3py    (-0.1172) 436 H12    2pz    (-0.2734) 437 H12    3pz    (-0.1701)
               443 H13    1s     (-0.3877) 444 H13    2s     (-0.5767) 445 H13    3s     (-0.1576) 457 H14    1s     ( 1.3571)
               458 H14    2s     ( 1.1373) 462 H14    2py    (-0.1800) 463 H14    3py    (-0.1172) 464 H14    2pz    ( 0.2734)
               465 H14    3pz    ( 0.1701) 471 H15    1s     ( 1.3571) 472 H15    2s     ( 1.1373) 476 H15    2py    ( 0.1800)
               477 H15    3py    ( 0.1172) 478 H15    2pz    (-0.2734) 479 H15    3pz    (-0.1701) 485 H16    1s     (-0.3877)
               486 H16    2s     (-0.5767) 487 H16    3s     (-0.1576) 499 H17    1s     ( 1.3571) 500 H17    2s     ( 1.1373)
               504 H17    2py    ( 0.1800) 505 H17    3py    ( 0.1172) 506 H17    2pz    ( 0.2734) 507 H17    3pz    ( 0.1701)
      
--
 
      Von Neumann Entropy (Root  1) =  0.50000
 

      Mulliken population analysis for root number:  1
      -----------------------------------------------
 
 
++    Molecular charges:
      ------------------
 
      Mulliken charges per centre and basis function type
      ---------------------------------------------------
 
                C1      S2      O3      O4      U5      O6      O7      S8      C9      O10     O11     H12   
      1s       2.0019  2.0000  1.9990  1.9990  2.0000  1.9996  1.9990  2.0000  2.0019  1.9996  1.9990  0.8700
      2s       1.3391  1.9988  1.8674  1.8674  2.0000  1.8938  1.8674  1.9988  1.3391  1.8938  1.8674 -0.0137
      2px      1.0056  1.9998  1.7278  1.7278  2.0000  1.6080  1.7278  1.9998  1.0056  1.6080  1.7278  0.0099
      2pz      0.9956  2.0015  1.4293  1.4293  2.0000  1.6621  1.4293  2.0015  0.9956  1.6621  1.4293  0.0044
      2py      0.8988  2.0011  1.6712  1.6712  2.0000  1.5551  1.6712  2.0011  0.8988  1.5551  1.6712  0.0151
      3s       0.0325  1.5799  0.0020  0.0020  2.0000  0.0082  0.0020  1.5799  0.0325  0.0082  0.0020 -0.0048
      3px     -0.0161  1.4249 -0.0236 -0.0236  2.0000 -0.0038 -0.0236  1.4249 -0.0161 -0.0038 -0.0236 -0.0017
      3pz     -0.0103  0.6553 -0.0004 -0.0004  2.0000  0.0071 -0.0004  0.6553 -0.0103  0.0071 -0.0004 -0.0071
      3py     -0.0031  0.8595 -0.0040 -0.0040  2.0000 -0.0131 -0.0040  0.8595 -0.0031 -0.0131 -0.0040  0.0005
      4s       0.0065  0.0135  0.0058  0.0058  2.0001  0.0042  0.0058  0.0135  0.0065  0.0042  0.0058  0.0000
      3d2+     0.0174  0.1308  0.0026  0.0026  2.0000  0.0088  0.0026  0.1308  0.0174  0.0088  0.0026  0.0009
      3d1+     0.0080  0.1338  0.0075  0.0075  2.0000  0.0035  0.0075  0.1338  0.0080  0.0035  0.0075  0.0010
      3d0      0.0161  0.2287  0.0097  0.0097  2.0000  0.0027  0.0097  0.2287  0.0161  0.0027  0.0097  0.0017
      3d1-     0.0169  0.1570  0.0083  0.0083  2.0000  0.0057  0.0083  0.1570  0.0169  0.0057  0.0083  0.0010
      3d2-     0.0159  0.0890  0.0022  0.0022  2.0000  0.0071  0.0022  0.0890  0.0159  0.0071  0.0022  0.0005
      4px     -0.0019 -0.0276 -0.0009 -0.0009  2.0000  0.0004 -0.0009 -0.0276 -0.0019  0.0004 -0.0009  0.0000
      4pz     -0.0010  0.0276  0.0017  0.0017  2.0000  0.0007  0.0017  0.0276 -0.0010  0.0007  0.0017  0.0000
      4py     -0.0002  0.0103  0.0010  0.0010  2.0000 -0.0001  0.0010  0.0103 -0.0002 -0.0001  0.0010  0.0000
      5s       0.0000  0.0060  0.0000  0.0000  2.0007  0.0000  0.0000  0.0060  0.0000  0.0000  0.0000  0.0000
      4d2+     0.0019  0.0026  0.0004  0.0004  2.0000  0.0014  0.0004  0.0026  0.0019  0.0014  0.0004  0.0000
      4d1+     0.0006  0.0005  0.0008  0.0008  2.0000  0.0005  0.0008  0.0005  0.0006  0.0005  0.0008  0.0000
      4d0     -0.0003  0.0029  0.0019  0.0019  2.0000 -0.0003  0.0019  0.0029 -0.0003 -0.0003  0.0019  0.0000
      4d1-    -0.0006  0.0008  0.0011  0.0011  2.0000  0.0009  0.0011  0.0008 -0.0006  0.0009  0.0011  0.0000
      4d2-     0.0004 -0.0009  0.0003  0.0003  2.0000 -0.0009  0.0003 -0.0009  0.0004 -0.0009  0.0003  0.0000
      5px      0.0000 -0.0027  0.0000  0.0000  1.9997  0.0000  0.0000 -0.0027  0.0000  0.0000  0.0000  0.0000
      5pz      0.0000 -0.0023  0.0000  0.0000  1.9999  0.0000  0.0000 -0.0023  0.0000  0.0000  0.0000  0.0000
      5py      0.0000  0.0006  0.0000  0.0000  1.9993  0.0000  0.0000  0.0006  0.0000  0.0000  0.0000  0.0000
      6s       0.0000  0.0000  0.0000  0.0000  1.9808  0.0000  0.0000  0.0000  0.0000  0.0000  0.0000  0.0000
      4f3+     0.0017  0.0103  0.0002  0.0002  2.0000  0.0008  0.0002  0.0103  0.0017  0.0008  0.0002  0.0000
      4f2+     0.0003  0.0234  0.0006  0.0006  2.0000  0.0001  0.0006  0.0234  0.0003  0.0001  0.0006  0.0000
      4f1+     0.0016  0.0195  0.0005  0.0005  2.0000  0.0002  0.0005  0.0195  0.0016  0.0002  0.0005  0.0000
      4f0      0.0004  0.0245  0.0008  0.0008  2.0000  0.0004  0.0008  0.0245  0.0004  0.0004  0.0008  0.0000
      4f1-     0.0021  0.0174  0.0006  0.0006  2.0000  0.0004  0.0006  0.0174  0.0021  0.0004  0.0006  0.0000
      4f2-     0.0006  0.0214  0.0006  0.0006  2.0000  0.0006  0.0006  0.0214  0.0006  0.0006  0.0006  0.0000
      4f3-     0.0016  0.0083  0.0002  0.0002  2.0000  0.0010  0.0002  0.0083  0.0016  0.0010  0.0002  0.0000
      5d2+     0.0000  0.0000  0.0000  0.0000  1.9994  0.0000  0.0000  0.0000  0.0000  0.0000  0.0000  0.0000
      5d1+     0.0000  0.0000  0.0000  0.0000  1.9996  0.0000  0.0000  0.0000  0.0000  0.0000  0.0000  0.0000
      5d0      0.0000  0.0000  0.0000  0.0000  1.9995  0.0000  0.0000  0.0000  0.0000  0.0000  0.0000  0.0000
      5d1-     0.0000  0.0000  0.0000  0.0000  1.9995  0.0000  0.0000  0.0000  0.0000  0.0000  0.0000  0.0000
      5d2-     0.0000  0.0000  0.0000  0.0000  1.9982  0.0000  0.0000  0.0000  0.0000  0.0000  0.0000  0.0000
      6px      0.0000  0.0000  0.0000  0.0000  1.9147  0.0000  0.0000  0.0000  0.0000  0.0000  0.0000  0.0000
      6pz      0.0000  0.0000  0.0000  0.0000  1.9752  0.0000  0.0000  0.0000  0.0000  0.0000  0.0000  0.0000
      6py      0.0000  0.0000  0.0000  0.0000  1.8667  0.0000  0.0000  0.0000  0.0000  0.0000  0.0000  0.0000
      7s       0.0000  0.0000  0.0000  0.0000  0.1059  0.0000  0.0000  0.0000  0.0000  0.0000  0.0000  0.0000
      5f3+     0.0000  0.0000  0.0000  0.0000  0.8492  0.0000  0.0000  0.0000  0.0000  0.0000  0.0000  0.0000
      5f2+     0.0000  0.0000  0.0000  0.0000  0.0178  0.0000  0.0000  0.0000  0.0000  0.0000  0.0000  0.0000
      5f1+     0.0000  0.0000  0.0000  0.0000  0.3359  0.0000  0.0000  0.0000  0.0000  0.0000  0.0000  0.0000
      5f0      0.0000  0.0000  0.0000  0.0000  0.0989  0.0000  0.0000  0.0000  0.0000  0.0000  0.0000  0.0000
      5f1-     0.0000  0.0000  0.0000  0.0000  0.6587  0.0000  0.0000  0.0000  0.0000  0.0000  0.0000  0.0000
      5f2-     0.0000  0.0000  0.0000  0.0000  0.1505  0.0000  0.0000  0.0000  0.0000  0.0000  0.0000  0.0000
      5f3-     0.0000  0.0000  0.0000  0.0000  0.2974  0.0000  0.0000  0.0000  0.0000  0.0000  0.0000  0.0000
      6d2+     0.0000  0.0000  0.0000  0.0000  0.3302  0.0000  0.0000  0.0000  0.0000  0.0000  0.0000  0.0000
      6d1+     0.0000  0.0000  0.0000  0.0000  0.1926  0.0000  0.0000  0.0000  0.0000  0.0000  0.0000  0.0000
      6d0      0.0000  0.0000  0.0000  0.0000  0.1161  0.0000  0.0000  0.0000  0.0000  0.0000  0.0000  0.0000
      6d1-     0.0000  0.0000  0.0000  0.0000  0.2663  0.0000  0.0000  0.0000  0.0000  0.0000  0.0000  0.0000
      6d2-     0.0000  0.0000  0.0000  0.0000  0.3334  0.0000  0.0000  0.0000  0.0000  0.0000  0.0000  0.0000
      7px      0.0000  0.0000  0.0000  0.0000  0.0376  0.0000  0.0000  0.0000  0.0000  0.0000  0.0000  0.0000
      7pz      0.0000  0.0000  0.0000  0.0000  0.0064  0.0000  0.0000  0.0000  0.0000  0.0000  0.0000  0.0000
      7py      0.0000  0.0000  0.0000  0.0000  0.0401  0.0000  0.0000  0.0000  0.0000  0.0000  0.0000  0.0000
      5g4+     0.0000  0.0000  0.0000  0.0000  0.0119  0.0000  0.0000  0.0000  0.0000  0.0000  0.0000  0.0000
      5g3+     0.0000  0.0000  0.0000  0.0000  0.0086  0.0000  0.0000  0.0000  0.0000  0.0000  0.0000  0.0000
      5g2+     0.0000  0.0000  0.0000  0.0000  0.0025  0.0000  0.0000  0.0000  0.0000  0.0000  0.0000  0.0000
      5g1+     0.0000  0.0000  0.0000  0.0000  0.0040  0.0000  0.0000  0.0000  0.0000  0.0000  0.0000  0.0000
      5g0      0.0000  0.0000  0.0000  0.0000  0.0029  0.0000  0.0000  0.0000  0.0000  0.0000  0.0000  0.0000
      5g1-     0.0000  0.0000  0.0000  0.0000  0.0061  0.0000  0.0000  0.0000  0.0000  0.0000  0.0000  0.0000
      5g2-     0.0000  0.0000  0.0000  0.0000  0.0061  0.0000  0.0000  0.0000  0.0000  0.0000  0.0000  0.0000
[...]
      *                                         Spin-orbit section                                       *
      *                                                                                                  *
      ****************************************************************************************************
 
 
 Complex SO-Hamiltonian matrix elements over
 spin components of spin-free eigenstates (SFS):
 (In cm-1. Print threshold:      1.000 cm-1)
 ----------------------------------------------------------------------
 
  I1  S1  MS1    I2  S2  MS2    Real part    Imag part      Absolute
     3  0.5 -0.5    2  0.5  0.5     -1598.081      1172.037      1981.801
     4  0.5  0.5    1  0.5 -0.5      1598.081      1172.037      1981.801
     5  0.5 -0.5    1  0.5 -0.5         0.000     -1223.494      1223.494
     5  0.5 -0.5    4  0.5  0.5      -917.362      -840.948      1244.486
     6  0.5  0.5    2  0.5  0.5         0.000      1223.494      1223.494
     6  0.5  0.5    3  0.5 -0.5       917.362      -840.948      1244.486
     7  0.5 -0.5    2  0.5  0.5       648.585      1232.593      1392.820
     7  0.5 -0.5    3  0.5 -0.5         0.000     -1082.083      1082.083
     7  0.5 -0.5    6  0.5  0.5     -2392.464      1798.419      2993.024
     8  0.5  0.5    1  0.5 -0.5      -648.585      1232.593      1392.820
     8  0.5  0.5    4  0.5  0.5         0.000      1082.083      1082.083
     8  0.5  0.5    5  0.5 -0.5      2392.464      1798.419      2993.024
 ----------------------------------------------------------------------
 
       Total energies including SO-coupling:
::    SO-RASSI State    1     Total energy: -29276.33717416
::    SO-RASSI State    2     Total energy: -29276.33717416
::    SO-RASSI State    3     Total energy: -29276.33190241
::    SO-RASSI State    4     Total energy: -29276.33190241
::    SO-RASSI State    5     Total energy: -29276.30887020
::    SO-RASSI State    6     Total energy: -29276.30887020
::    SO-RASSI State    7     Total energy: -29276.30280781
::    SO-RASSI State    8     Total energy: -29276.30280781
 
 
   Eigenvalues of complex Hamiltonian:
   -----------------------------------
 
  (Shifted by EVAC (a.u.) =    -29276.324530595)
 
          Relative EVac(au)    Rel lowest level(eV)    D:o, cm**(-1)
 
     1       -0.0126435621          0.0000000000              0.0000
     2       -0.0126435621          0.0000000000              0.0000
     3       -0.0073718141          0.1434515679           1157.0149
     4       -0.0073718141          0.1434515679           1157.0149
     5        0.0156603935          0.7701898597           6212.0002
     6        0.0156603935          0.7701898597           6212.0002
     7        0.0217227837          0.9351558998           7542.5411
     8        0.0217227837          0.9351558998           7542.5411
 
 
 Weights of the five most important spin-orbit-free states for each spin-orbit s
 tate.
 
 SO State  Total energy (au)           Spin-free states, spin, and weights
 -------------------------------------------------------------------------------
 ------------------------
    1        -0.012644       3 0.5  0.4597    4 0.5  0.2988    1 0.5  0.2192    2 0.5  0.0223
    2        -0.012644       3 0.5  0.4597    4 0.5  0.2988    1 0.5  0.2192    2 0.5  0.0223
    3        -0.007372       2 0.5  0.5287    1 0.5  0.4177    3 0.5  0.0379    4 0.5  0.0158
    4        -0.007372       2 0.5  0.5287    1 0.5  0.4177    3 0.5  0.0379    4 0.5  0.0158
    5         0.015660       2 0.5  0.4296    1 0.5  0.3363    3 0.5  0.2275    4 0.5  0.0066
    6         0.015660       2 0.5  0.4296    1 0.5  0.3363    3 0.5  0.2275    4 0.5  0.0066
    7         0.021723       4 0.5  0.6789    3 0.5  0.2749    1 0.5  0.0269    2 0.5  0.0194
    8         0.021723       4 0.5  0.6789    3 0.5  0.2749    1 0.5  0.0269    2 0.5  0.0194
 -------------------------------------------------------------------------------
 ------------------------
 
 
      ****************************************************************************************************
      *                                                                                                  *
      *                                    Special properties section                                    *
      *                                                                                                  *
      ****************************************************************************************************
 
 
 
 --------------------------------------------------
 
 A comparison between the dipole oscillator strengths in 
 length and velocity gauge will be performed
 
 All dipole oscillator differences above the tolerance of 
  0.100000000000000       will be printed 
 
 Due to basis set deficiency these oscillator may be problematic 
 
 The tolerance is defined as ABS(1-O_l/O_v) 
 O_l : dipole oscillator strength in length gauge
 O_p : dipole oscillator strength in velocity gauge
 
 --------------------------------------------------
 
 No problematic oscillator strengths above the tolerance 
  0.100000000000000       have been found
 
 Electric-Dipole - Electric-Octupole not included
 Electric-Dipole - Magnetic-Quadrupole not included
 ###############################################################################
 ###############################################################################
 ###                                                                         ###
 ###                                                                         ###
 ###    RunFile label nBas                                                   ###
 ###    was used      399 times                                              ###
 ###                                                                         ###
 ###                                                                         ###
 ###############################################################################
 ###############################################################################
--- Stop Module: rassi at Thu Dec  5 12:01:45 2019 /rc=_RC_ALL_IS_WELL_ ---
*** files: UO2_CH3SO2_CH3SO2-m1-doublet.rassi-SO-casscf-xmscaspt2.VTZP.rassi.h5 xmldump
    saved to directory /home/vallet/John-sulfinate/U-complexes/UO2_CH3SO2_CH3SO2-m1/optg-freq-pbe0/SO-XMS
--- Module rassi spent 14 seconds ---

>>> COPY /home/vallet/John-sulfinate/U-complexes/UO2_CH3SO2_CH3SO2-m1/optg-freq-pbe0/SO-XMS/UO2_CH3SO2_CH3SO2-m1-doublet.rassi-SO-casscf-xmscaspt2.VTZP.JobMix_doublets JOB001

--- Start Module: rassi at Thu Dec  5 12:01:46 2019 ---
 
()()()()()()()()()()()()()()()()()()()()()()()()()()()()()()()()()()()()()()()()()()()()()()()()()()

                                               &RASSI

                                   only a single process is used
                       available to each process: 16 GB of memory, 8 threads
()()()()()()()()()()()()()()()()()()()()()()()()()()()()()()()()()()()()()()()()()()()()()()()()()()
 
 
      ********************************************************************************
      *                                                                              *
      *                             General data section                             *
      *                                                                              *
      ********************************************************************************
 
   Specific data for JOBIPH file 
 JOB001                                                                         
                                                  
   -------------------------------------
 
   Header from SEWARD:
                                                                               
        Integrals generated by seward 4.2.0  , Thu Dec  5 09:14:02 2019        
 
   CASSCF title (first line only):
       (No title given)                                                        
 
   STATE IRREP:                             1
   SPIN MULTIPLICITY:                       2
   ACTIVE ELECTRONS:                        1
   MAX RAS1 HOLES:                          0
   MAX RAS3 ELECTRONS:                      0
   NR OF CONFIG:                            4
 
   The following data are common to all the states:
   ------------------------------------------------
   (note: frozen counts as inactive, deleted as secondary)
 
      NR of irreps: 1
 
                 Total     No./Irrep 
      Irrep                  1
                             a
 
      INACTIVE      95      95
      ACTIVE         4       4
      SECONDARY    413     413
      BASIS        512     512
 
      RAS1           0       0
      RAS2           4       4
      RAS3           0       0
 
        MATRIX ELEMENTS WILL BE COMPUTED FOR THE FOLLOWING ONE-ELECTRON OPERATOR
 S, UNLESS ZERO BY SYMMETRY.
   (Herm=Hermitian, Anti=Antihermitian, Sing=Singlet operator, Trip=Triplet oper
 ator)
     MLTPL  1   1 (HERMSING)     MLTPL  1   2 (HERMSING)     MLTPL  1   3 (HERMSING)
     MLTPL  2   1 (HERMSING)     MLTPL  2   2 (HERMSING)     MLTPL  2   3 (HERMSING)
     MLTPL  2   4 (HERMSING)     MLTPL  2   5 (HERMSING)     MLTPL  2   6 (HERMSING)
     VELOCITY   1 (ANTISING)     VELOCITY   2 (ANTISING)     VELOCITY   3 (ANTISING)
     ANGMOM     1 (ANTISING)     ANGMOM     2 (ANTISING)     ANGMOM     3 (ANTISING)
     AMFI       1 (ANTITRIP)     AMFI       2 (ANTITRIP)     AMFI       3 (ANTITRIP)
 
       EIGENSTATES OF A SPIN-FREE HAMILTONIAN WILL BE COMPUTED BASED ON:
 
  a Hamiltonian matrix assumed to be diagonal with energies read from the wavefu
 nction file(s).
  SO coupling elements will be added.
       EIGENSTATES OF SPIN-ORBIT HAMILTONIAN WILL BE COMPUTED
        MATRIX ELEMENTS OVER SPIN EIGENSTATES FOR:
     MLTPL  1   1 (HERMSING)     MLTPL  1   2 (HERMSING)     MLTPL  1   3 (HERMSING)
     MLTPL  2   1 (HERMSING)     MLTPL  2   2 (HERMSING)     MLTPL  2   3 (HERMSING)
     MLTPL  2   4 (HERMSING)     MLTPL  2   5 (HERMSING)     MLTPL  2   6 (HERMSING)
     VELOCITY   1 (ANTISING)     VELOCITY   2 (ANTISING)     VELOCITY   3 (ANTISING)
     ANGMOM     1 (ANTISING)     ANGMOM     2 (ANTISING)     ANGMOM     3 (ANTISING)
 
  Nr of states:                     4
 
   State:        1   2   3   4
  JobIph:        1   1   1   1
 Root nr:        1   2   3   4
 
  HAMILTONIAN MATRIX FOR THE ORIGINAL STATES:
 
  Diagonal, with energies
 -29279.03292919 -29279.02997836 -29279.02943530 -29279.02133740
 
      OVERLAP MATRIX FOR THE ORIGINAL STATES:
 
  Diagonal, with elements
      1.00000000      1.00000000      1.00000000      1.00000000
 
::    RASSI State    1     Total energy: -29279.03292919
::    RASSI State    2     Total energy: -29279.02997836
::    RASSI State    3     Total energy: -29279.02943530
::    RASSI State    4     Total energy: -29279.02133740
 
 
 
      ****************************************************************************************************
      *                                                                                                  *
      *                                         Spin-free section                                        *
      *                                                                                                  *
      *                 Note: index according to input order, order according to energy.                 *
      *                                                                                                  *
      ****************************************************************************************************
 
 
 
  SPIN-FREE ENERGIES:
  (Shifted by EVAC (a.u.) =     -29279.0329291890)
 
 SF State       Relative EVAC(au)   Rel lowest level(eV)    D:o, cm**(-1)
 
     1             0.0000000000        0.0000000000              0.0000
     2             0.0029508282        0.0802961262            647.6319
     3             0.0034938848        0.0950734492            766.8191
     4             0.0115917928        0.3154287483           2544.1044
 
++ Dipole transition strengths (spin-free states):
   -----------------------------------------------
     for osc. strength at least  1.00000000E-05
 
  ( Max oscillator strength is only   3.017351625268874E-019 )
--
 
++ Velocity transition strengths (spin-free states):
   -------------------------------------------------
     for osc. strength at least  1.00000000E-05
 
  ( Max oscillator strength is only   1.109531572771102E-014 )
--
 
 --------------------------------------------------
 
 A comparison between the dipole oscillator strengths in 
 length and velocity gauge will be performed
 
 All dipole oscillator differences above the tolerance of 
  0.100000000000000       will be printed 
 
 Due to basis set deficiency these oscillator may be problematic 
 
 The tolerance is defined as ABS(1-O_l/O_v) 
 O_l : dipole oscillator strength in length gauge
 O_p : dipole oscillator strength in velocity gauge
 
 --------------------------------------------------
 
 No problematic oscillator strengths above the tolerance 
  0.100000000000000       have been found
 
 Electric-Dipole - Electric-Octupole not included
 Electric-Dipole - Magnetic-Quadrupole not included
 
 
 
      ****************************************************************************************************
      *                                                                                                  *
      *                                         Spin-orbit section                                       *
      *                                                                                                  *
      ****************************************************************************************************
 
 
 Complex SO-Hamiltonian matrix elements over
 spin components of spin-free eigenstates (SFS):
 (In cm-1. Print threshold:      1.000 cm-1)
 ----------------------------------------------------------------------
 
  I1  S1  MS1    I2  S2  MS2    Real part    Imag part      Absolute
     3  0.5 -0.5    1  0.5 -0.5         0.000     -1223.494      1223.494
     4  0.5  0.5    2  0.5  0.5         0.000      1223.494      1223.494
     5  0.5 -0.5    2  0.5  0.5     -1553.752      1205.869      1966.791
     5  0.5 -0.5    4  0.5  0.5      1004.793       775.183      1269.062
     6  0.5  0.5    1  0.5 -0.5      1553.752      1205.869      1966.791
     6  0.5  0.5    3  0.5 -0.5     -1004.793       775.183      1269.062
     7  0.5 -0.5    2  0.5  0.5       524.343      1324.121      1424.160
     7  0.5 -0.5    4  0.5  0.5     -2416.872      1739.578      2977.819
     7  0.5 -0.5    5  0.5 -0.5         0.000     -1082.083      1082.083
     8  0.5  0.5    1  0.5 -0.5      -524.343      1324.121      1424.160
     8  0.5  0.5    3  0.5 -0.5      2416.872      1739.578      2977.819
     8  0.5  0.5    6  0.5  0.5         0.000      1082.083      1082.083
 ----------------------------------------------------------------------
 
       Total energies including SO-coupling:
::    SO-RASSI State    1     Total energy: -29279.04561013
::    SO-RASSI State    2     Total energy: -29279.04561013
::    SO-RASSI State    3     Total energy: -29279.04003059
::    SO-RASSI State    4     Total energy: -29279.04003059
::    SO-RASSI State    5     Total energy: -29279.01714683
::    SO-RASSI State    6     Total energy: -29279.01714683
::    SO-RASSI State    7     Total energy: -29279.01089269
::    SO-RASSI State    8     Total energy: -29279.01089269
 
 
   Eigenvalues of complex Hamiltonian:
   -----------------------------------
 
  (Shifted by EVAC (a.u.) =    -29279.032929189)
 
          Relative EVac(au)    Rel lowest level(eV)    D:o, cm**(-1)
 
     1       -0.0126809459          0.0000000000              0.0000
     2       -0.0126809459          0.0000000000              0.0000
     3       -0.0071014020          0.1518271237           1224.5683
     4       -0.0071014020          0.1518271237           1224.5683
     5        0.0157823564          0.7745259068           6246.9728
     6        0.0157823564          0.7745259068           6246.9728
     7        0.0220364974          0.9447097525           7619.5981
     8        0.0220364974          0.9447097525           7619.5981
 
 
 Weights of the five most important spin-orbit-free states for each spin-orbit s
 tate.
 
 SO State  Total energy (au)           Spin-free states, spin, and weights
 -------------------------------------------------------------------------------
 ------------------------
    1        -0.012681       2 0.5  0.4699    4 0.5  0.2872    1 0.5  0.2225    3 0.5  0.0204
    2        -0.012681       2 0.5  0.4699    4 0.5  0.2872    1 0.5  0.2225    3 0.5  0.0204
    3        -0.007101       3 0.5  0.5185    1 0.5  0.4221    2 0.5  0.0438    4 0.5  0.0157
    4        -0.007101       3 0.5  0.5185    1 0.5  0.4221    2 0.5  0.0438    4 0.5  0.0157
    5         0.015782       3 0.5  0.4358    1 0.5  0.3221    2 0.5  0.2395    4 0.5  0.0026
    6         0.015782       3 0.5  0.4358    1 0.5  0.3221    2 0.5  0.2395    4 0.5  0.0026
    7         0.022036       4 0.5  0.6945    2 0.5  0.2469    1 0.5  0.0334    3 0.5  0.0253
    8         0.022036       4 0.5  0.6945    2 0.5  0.2469    1 0.5  0.0334    3 0.5  0.0253
 -------------------------------------------------------------------------------
 ------------------------
 
 
      ****************************************************************************************************
      *                                                                                                  *
      *                                    Special properties section                                    *
      *                                                                                                  *
      ****************************************************************************************************
 
 
 
 --------------------------------------------------
 
 A comparison between the dipole oscillator strengths in 
 length and velocity gauge will be performed
 
 All dipole oscillator differences above the tolerance of 
  0.100000000000000       will be printed 
 
 Due to basis set deficiency these oscillator may be problematic 
 
 The tolerance is defined as ABS(1-O_l/O_v) 
 O_l : dipole oscillator strength in length gauge
 O_p : dipole oscillator strength in velocity gauge
 
 --------------------------------------------------
 
 No problematic oscillator strengths above the tolerance 
  0.100000000000000       have been found
 
 Electric-Dipole - Electric-Octupole not included
 Electric-Dipole - Magnetic-Quadrupole not included
 ###############################################################################
 ###############################################################################
 ###                                                                         ###
 ###                                                                         ###
 ###    RunFile label nBas                                                   ###
 ###    was used      399 times                                              ###
 ###                                                                         ###
 ###                                                                         ###
 ###############################################################################
 ###############################################################################
--- Stop Module: rassi at Thu Dec  5 12:01:50 2019 /rc=_RC_ALL_IS_WELL_ ---
*** files: UO2_CH3SO2_CH3SO2-m1-doublet.rassi-SO-casscf-xmscaspt2.VTZP.rassi.h5 xmldump
    saved to directory /home/vallet/John-sulfinate/U-complexes/UO2_CH3SO2_CH3SO2-m1/optg-freq-pbe0/SO-XMS
--- Module rassi spent 4 seconds ---

    Timing: Wall=10209.99 User=52583.90 System=2163.89
