   This run of MOLCAS is using the pymolcas driver

                             OPE
                             OPE          NMOL  CASOP  ENMOLC A   SO
                 OPE        NMOLC        AS  OP EN  MO LC     AS  OP
                OPENM       OL CA        SO  PE NM  OL CA     SOP EN
                OP EN      MO   LC       AS  OP ENMOL  CASO   PENMOL
                OP  EN     MO   LC       AS  OP EN     MO     LC ASO
               OP   E  NMOL  C  AS       OP  EN MO     LC     AS  OP
               OP  E   NMO   LC AS        OPEN  MO     LCASOP EN   M
               O  PEN   MO  LCA  SO
            OPE   NMO   L   CAS    OP
        OPENMOL  CASOP     ENMOL   CASOPE
     OPENMOLCA   SOPENMOLCASOPEN   MOLCASOPE
    OPENMOLCAS   OP           EN   MOL    CAS
    OPENMOLCAS       OP  ENM        O     LCA
    OPENMOLCAS    OPEN  MOLCASO     P  E  NMO
    OPENMOLCAS     OP               E  N  MOL
    OPENMOLCA   SO           PENM   O  L  CAS    OPEN    MO    LCAS
    OPENMOLCA   SOP           ENM   O  L  CAS   OP  EN  MOLC  AS   O
    OPENMOLCA   SOPE           NM      O  LCA   S      OP  EN MO
    OPENMOLC                AS         O  PEN   M      OL  CA  SOPE
    OPENMO        LCASOPE  NMOL        C  ASO   P      ENMOLC     AS
    OPE     NMO      LCA  SO     P     E   NM   OL  CA SO  PE N   MO
          OPENMOLCA            SOPE   NMO        LCAS  O    P  ENMO
     OPENMOLCASOPENMOLCASOPENMOLCASOPENMOLCA
        OPENMOLCASOPENMOLCASOPENMOLCASOPE
            OPENMOLCASOPENMOLCASOPENM
               OPENMOLCASOPENMOLCA        version: 18.09
                   OPENMOLCASO
                       OPE                tag: 259-g52797e1-dirty

 OpenMolcas is free software; you can redistribute it and/or modify it
 under the terms of the GNU Lesser General Public License version 2.1.
 OpenMolcas is distributed in the hope that it will be useful, but it
 is provided "as is" and without any express or implied warranties.
 For more details see the full text of the license in the file
 LICENSE or in <http://www.gnu.org/licenses/>.

                 Copyright (C) The OpenMolcas Authors
           For the author list and the recommended citation,
                   consult the file CONTRIBUTORS.md

           *************************************************
           * pymolcas version py2.05                       *
           *   build e639e37c9a57315123c35f99e509df06      *
           *   (after the EMIL interpreter by V. Veryazov) *
           *************************************************

configuration info
------------------
C Compiler ID: Intel
C flags: -I/share/apps/fftw/3.3.8/include -std=gnu99 -mcmodel=large -qopenmp
Fortran Compiler ID: Intel
Fortran flags: -fpp -mcmodel=large -i8 -r8 -heap-arrays -qopenmp
Definitions: _MOLCAS_;_I8_;_LINUX_;_MKL_;_FDE_
Parallel: OFF (GA=OFF)


   ---------------------------------------------------------------------------------------------------------
  |
  |           Project: UO2_CH3SO2_CH3SO2-m1-doublet.casscf.MB
  |    Submitted from: /home/vallet/John-sulfinate/U-complexes/UO2_CH3SO2_CH3SO2-m1/optg-freq-pbe0/SO-XMS
  |      Scratch area: /state/partition2/vallet/655443.phlam-s-sakura/UO2_CH3SO2_CH3SO2-m1-doublet.casscf.MB
  |   Save outputs to: /home/vallet/John-sulfinate/U-complexes/UO2_CH3SO2_CH3SO2-m1/optg-freq-pbe0/SO-XMS
  |            Molcas: /home/pcmt/OpenMolcas/OpenMolcas-20190114
  |
  | Scratch area is empty
  |
  |    MOLCAS_DRIVER = /home/pcmt/OpenMolcas/OpenMolcas-20190114/sbin/pymolcas
  |   MOLCAS_LICENSE = /home/pcmt/molcas/license
  |    MOLCAS_MOLDEN = ON
  |    MOLCAS_NPROCS = 1
  |    MOLCAS_SOURCE = /home/pcmt/OpenMolcas/OpenMolcas-20190114
  | MOLCAS_STRUCTURE = 0
  |
   ---------------------------------------------------------------------------------------------------------

++ ---------   Input file   ---------

&GATEWAY
   COORD=$HomeDir/UO2_CH3SO2_CH3SO2-m1-doublet.pbe0.optg.xyz
   BASIS=ANO-RCC-MB
   Group=Nosym
   ANGM=0.0 0.0 0.0
   RICD

>>> COPY $Project.RunFile $HomeDir

&SEWARD

&RASSCF
   Spin=2
   Symmetry=1
   Nactel=1 0 0
   Inactive=95
   Ras2=4
   CIRoots=4 4 1
   Lumorb

>>> COPY $Project.RasOrb $HomeDir/$Project.RasOrb_doublets

>>> COPY $Project.rasscf.molden $HomeDir/$Project.rasscf_doublets.molden

-- ----------------------------------

--- Start Module: gateway at Wed Dec  4 10:47:07 2019 ---
 
()()()()()()()()()()()()()()()()()()()()()()()()()()()()()()()()()()()()()()()()()()()()()()()()()()

                                              &GATEWAY

                                   only a single process is used
                       available to each process: 16 GB of memory, 8 threads
()()()()()()()()()()()()()()()()()()()()()()()()()()()()()()()()()()()()()()()()()()()()()()()()()()
 
 
++    Symmetry information:
      ---------------------
 
                    Character Table for C1 
 
                             E  
                    a        1  x, y, xy, Rz, z, xz, Ry, yz, Rx, I
--
 
 
++    Basis set information:
      ----------------------
 
 
      Basis set label: C.ANO-RCC...2S1P.
 
      Electronic valence basis set:
      ------------------
      Associated Effective Charge   6.000000 au
      Associated Actual Charge      6.000000 au
      Nuclear Model: Point charge
 
      Shell  nPrim  nBasis  Cartesian Spherical Contaminant
         s      14       2        X                  
         p       9       1        X                  
 
 
      Basis set label: S.ANO-RCC...3S2P.
 
      Electronic valence basis set:
      ------------------
      Associated Effective Charge  16.000000 au
      Associated Actual Charge     16.000000 au
      Nuclear Model: Point charge
 
      Shell  nPrim  nBasis  Cartesian Spherical Contaminant
         s      17       3        X                  
         p      12       2        X                  
 
 
      Basis set label: O.ANO-RCC...2S1P.
 
      Electronic valence basis set:
      ------------------
      Associated Effective Charge   8.000000 au
      Associated Actual Charge      8.000000 au
      Nuclear Model: Point charge
 
      Shell  nPrim  nBasis  Cartesian Spherical Contaminant
         s      14       2        X                  
         p       9       1        X                  
 
 
      Basis set label: U.ANO-RCC...7S6P4D2F.
 
      Electronic valence basis set:
      ------------------
      Associated Effective Charge  92.000000 au
      Associated Actual Charge     92.000000 au
      Nuclear Model: Point charge
 
      Shell  nPrim  nBasis  Cartesian Spherical Contaminant
         s      26       7        X                  
         p      23       6        X                  
         d      17       4                 X         
         f      13       2                 X         
 
 
      Basis set label: O.ANO-RCC...2S1P.
 
      Electronic valence basis set:
      ------------------
      Associated Effective Charge   8.000000 au
      Associated Actual Charge      8.000000 au
      Nuclear Model: Point charge
 
      Shell  nPrim  nBasis  Cartesian Spherical Contaminant
         s      14       2        X                  
         p       9       1        X                  
 
 
      Basis set label: S.ANO-RCC...3S2P.
 
      Electronic valence basis set:
      ------------------
      Associated Effective Charge  16.000000 au
      Associated Actual Charge     16.000000 au
      Nuclear Model: Point charge
 
      Shell  nPrim  nBasis  Cartesian Spherical Contaminant
         s      17       3        X                  
         p      12       2        X                  
 
 
      Basis set label: C.ANO-RCC...2S1P.
 
      Electronic valence basis set:
      ------------------
      Associated Effective Charge   6.000000 au
      Associated Actual Charge      6.000000 au
      Nuclear Model: Point charge
 
      Shell  nPrim  nBasis  Cartesian Spherical Contaminant
         s      14       2        X                  
         p       9       1        X                  
 
 
      Basis set label: O.ANO-RCC...2S1P.
 
      Electronic valence basis set:
      ------------------
      Associated Effective Charge   8.000000 au
      Associated Actual Charge      8.000000 au
      Nuclear Model: Point charge
 
      Shell  nPrim  nBasis  Cartesian Spherical Contaminant
         s      14       2        X                  
         p       9       1        X                  
 
 
      Basis set label: H.ANO-RCC...1S.
 
      Electronic valence basis set:
      ------------------
      Associated Effective Charge   1.000000 au
      Associated Actual Charge      1.000000 au
      Nuclear Model: Point charge
 
      Shell  nPrim  nBasis  Cartesian Spherical Contaminant
         s       8       1        X                  
--
 
 
++    Molecular structure info:
      -------------------------
 
                    ************************************************ 
                    **** Cartesian Coordinates / Bohr, Angstrom **** 
                    ************************************************ 
 
     Center  Label                x              y              z                     x              y              z
        1      C1               2.812852      -6.892959       0.000000              1.488497      -3.647597       0.000000
        2      S2               4.428172      -3.869632       0.000000              2.343288      -2.047721       0.000000
        3      O3               3.261057      -2.588646       2.326020              1.725677      -1.369852       1.230877
        4      O4               3.261057      -2.588646      -2.326020              1.725677      -1.369852      -1.230877
        5      U5               0.000000       0.000000       0.000000              0.000000       0.000000       0.000000
        6      O6              -2.033345      -2.726899       0.000000             -1.076000      -1.443013       0.000000
        7      O7              -3.261057       2.588646      -2.326020             -1.725677       1.369852      -1.230877
        8      S8              -4.428172       3.869632       0.000000             -2.343288       2.047721       0.000000
        9      C9              -2.812852       6.892959       0.000000             -1.488497       3.647597       0.000000
       10      O10              2.033345       2.726899       0.000000              1.076000       1.443013       0.000000
       11      O11             -3.261057       2.588646       2.326020             -1.725677       1.369852       1.230877
       12      H12             -3.373085       7.921471       1.695621             -1.784960       4.191862       0.897284
       13      H13             -0.793481       6.476095       0.000000             -0.419892       3.427002       0.000000
       14      H14             -3.373085       7.921471      -1.695621             -1.784960       4.191862      -0.897284
       15      H15              3.373085      -7.921471       1.695621              1.784960      -4.191862       0.897284
       16      H16              0.793481      -6.476095       0.000000              0.419892      -3.427002       0.000000
       17      H17              3.373085      -7.921471      -1.695621              1.784960      -4.191862      -0.897284
 
                    ************************************************* 
                    **** InterNuclear Distances / Bohr, Angstrom **** 
                    ************************************************* 
 
     Atom centers         Bohr        Angstrom
   12 H12       9 C9      2.060784        1.090520
   14 H14       9 C9    
   15 H15       1 C1    
   17 H17       1 C1    
   13 H13       9 C9      2.061949        1.091137
   16 H16       1 C1    
    3 O3        2 S2      2.900596        1.534929
    4 O4        2 S2    
    8 S8        7 O7    
   11 O11       8 S8    
   14 H14      12 H12     3.391243        1.794568
   17 H17      15 H15   
    6 O6        5 U5      3.401540        1.800017
   10 O10       5 U5    
   13 H13      12 H12     3.408607        1.803757
   14 H14      13 H13   
   16 H16      15 H15   
   17 H17      16 H16   
    2 S2        1 C1      3.427793        1.813910
    9 C9        8 S8    
   13 H13       8 S8      4.472654        2.366827
   16 H16       2 S2    
   12 H12       8 S8      4.517271        2.390437
   14 H14       8 S8    
   15 H15       2 S2    
   17 H17       2 S2    
    4 O4        3 O3      4.652040        2.461754
   11 O11       7 O7    
   13 H13      10 O10     4.695467        2.484734
   16 H16       6 O6    
    5 U5        3 O3      4.769271        2.523790
    5 U5        4 O4    
    7 O7        5 U5    
   11 O11       5 U5    
    3 O3        1 C1      4.913082        2.599891
    4 O4        1 C1    
    9 C9        7 O7    
   11 O11       9 C9    
   13 H13       7 O7      5.158640        2.729835
   13 H13      11 O11   
   16 H16       3 O3    
   16 H16       4 O4    
   12 H12      11 O11     5.371124        2.842277
   14 H14       7 O7    
   15 H15       3 O3    
   17 H17       4 O4    
--
 
 
            Nuclear Potential Energy           2487.72037084 au
 
--- Stop Module: gateway at Wed Dec  4 10:48:12 2019 /rc=_RC_ALL_IS_WELL_ ---
*** files: UO2_CH3SO2_CH3SO2-m1-doublet.casscf.MB.RICDLib xmldump
    saved to directory /home/vallet/John-sulfinate/U-complexes/UO2_CH3SO2_CH3SO2-m1/optg-freq-pbe0/SO-XMS
--- Module gateway spent 1 minute 5 seconds ---

>>> COPY UO2_CH3SO2_CH3SO2-m1-doublet.casscf.MB.RunFile /home/vallet/John-sulfinate/U-complexes/UO2_CH3SO2_CH3SO2-m1/optg-freq-pbe0/SO-XMS

--- Start Module: seward at Wed Dec  4 10:48:13 2019 ---
 
()()()()()()()()()()()()()()()()()()()()()()()()()()()()()()()()()()()()()()()()()()()()()()()()()()

                                              &SEWARD

                                   only a single process is used
                       available to each process: 16 GB of memory, 8 threads
()()()()()()()()()()()()()()()()()()()()()()()()()()()()()()()()()()()()()()()()()()()()()()()()()()
 
               SEWARD will generate:
                  Multipole Moment integrals up to order  2
                  Kinetic Energy integrals
                  Nuclear Attraction integrals (point charge)
                  One-Electron Hamiltonian integrals
                  Velocity integrals
                  Relativistic Douglas-Kroll-Hess integrals:
                    - Parametrization         : EXP
                    - DKH order of Hamiltonian: 2
                    - DKH order of Properties : 0
                         - multipole moment operators
                         - electric potential operators
                         - contact operators
                  Orbital angular momentum around ( 0.0000  0.0000  0.0000 )
                  Atomic mean-field integrals
                  RI decomposed two-electron repulsion integrals stored Cholesky style
                   - acCD auxiliary basis
                   - CD Threshold:   0.10E-03
 
                   Integrals are discarded if absolute value <: 0.10E-13
                   Integral cutoff threshold is set to       <: 0.10E-15
 
            Nuclear Potential Energy           2487.72037084 au
 
 
      Basis set specifications :
      Symmetry species         a  
      Basis functions          123
 
 
  Input file to MOLDEN was generated!
 
--- Stop Module: seward at Wed Dec  4 10:48:34 2019 /rc=_RC_ALL_IS_WELL_ ---
*** files: UO2_CH3SO2_CH3SO2-m1-doublet.casscf.MB.GssOrb UO2_CH3SO2_CH3SO2-m1-doublet.casscf.MB.guessorb.h5 UO2_CH3SO2_CH3SO2-m1-doublet.casscf.MB.guessorb.molden xmldump
    saved to directory /home/vallet/John-sulfinate/U-complexes/UO2_CH3SO2_CH3SO2-m1/optg-freq-pbe0/SO-XMS
--- Module seward spent 21 seconds ---

*** symbolic link created: INPORB -> UO2_CH3SO2_CH3SO2-m1-doublet.casscf.MB.GssOrb
--- Start Module: rasscf at Wed Dec  4 10:48:34 2019 ---
 
()()()()()()()()()()()()()()()()()()()()()()()()()()()()()()()()()()()()()()()()()()()()()()()()()()

                                              &RASSCF

                                   only a single process is used
                       available to each process: 16 GB of memory, 8 threads
()()()()()()()()()()()()()()()()()()()()()()()()()()()()()()()()()()()()()()()()()()()()()()()()()()
 
 
      Header of the ONEINT file:
      --------------------------
      
      Integrals generated by seward 4.2.0  , Wed Dec  4 10:48:13 2019
 
 
      OrdInt status: non-squared
 
 
      Cartesian coordinates in Angstrom:
      -----------------------------------------------------
      No.  Label        X            Y            Z        
      -----------------------------------------------------
       1   C1         1.48849710  -3.64759700   0.00000000
       2   S2         2.34328780  -2.04772110   0.00000000
       3   O3         1.72567680  -1.36985230   1.23087690
       4   O4         1.72567680  -1.36985230  -1.23087690
       5   U5         0.00000000   0.00000000   0.00000000
       6   O6        -1.07599970  -1.44301300   0.00000000
       7   O7        -1.72567680   1.36985230  -1.23087690
       8   S8        -2.34328780   2.04772110   0.00000000
       9   C9        -1.48849710   3.64759700   0.00000000
      10   O10        1.07599970   1.44301300   0.00000000
      11   O11       -1.72567680   1.36985230   1.23087690
      12   H12       -1.78495980   4.19186180   0.89728420
      13   H13       -0.41989190   3.42700210   0.00000000
      14   H14       -1.78495980   4.19186180  -0.89728420
      15   H15        1.78495980  -4.19186180   0.89728420
      16   H16        0.41989190  -3.42700210   0.00000000
      17   H17        1.78495980  -4.19186180  -0.89728420
      -----------------------------------------------------
      Nuclear repulsion energy = 2487.72037084
 
++    Wave function specifications:
      -----------------------------
 
      Number of closed shell electrons         190
      Number of electrons in active shells       1
      Max number of holes in RAS1 space          0
      Max nr of electrons in RAS3 space          0
      Number of inactive orbitals               95
      Number of active orbitals                  4
      Number of secondary orbitals              24
      Spin quantum number                      0.5
      State symmetry                             1
--
 
++    Orbital specifications:
      -----------------------
 
      Symmetry species                           1
                                                 a
      Frozen orbitals                            0
      Inactive orbitals                         95
      Active orbitals                            4
      RAS1 orbitals                              0
      RAS2 orbitals                              4
      RAS3 orbitals                              0
      Secondary orbitals                        24
      Deleted orbitals                           0
      Number of basis functions                123
--
 
++    CI expansion specifications:
      ----------------------------
 
      Number of CSFs                             4
      Number of determinants                     4
      Number of root(s) required                 4
      Root chosen for geometry opt.              4
      CI roots used                              1     2     3     4
      weights                                0.250 0.250 0.250 0.250
      highest root included in the CI            4
      max. size of the explicit Hamiltonian      4
--
 
++    Optimization specifications:
      ----------------------------
 
      RASSCF algorithm: LK RI/DF
      Maximum number of macro iterations       200
      Maximum number of SX iterations          100
      Threshold for RASSCF energy            0.100E-07
      Threshold for max MO rotation          0.100E+00
      Threshold for max BLB element          0.100E-03
      Level shift parameter                  0.500E+00
      Make Quasi-Newton update
--
 
      The MO-coefficients are taken from the file:
      INPORB                                                                                                                          
      Title:Guess orbitals                                                                 
 
      Total molecular charge   -1.00
 
      ************************************************************************************************************************
      *                                                                                                                      *
      *                                            Wave function control section                                             *
      *                                                                                                                      *
      ************************************************************************************************************************
 
 
                                         RASSCF iterations: Energy and convergence statistics
                                         ----------------------------------------------------
 
      Iter CI   SX   CI       RASSCF       Energy    max ROT     max BLB   max BLB  Level Ln srch  Step   QN   Walltime
          iter iter root      energy       change     param      element    value   shift minimum  type update hh:mm:ss
 Nr of preliminary CI iterations:   1
      Total energies have been shifted. Add               -29000.00 au
        1   1    9    0  -273.71708385    0.00E+00  -0.99E-01   93 102 1  0.33E+00*  0.45   0.00    SX    NO    0:00:03
        2   1    9    0  -274.72177367   -0.10E+01* -0.80E-01   95  98 1 -0.18E+00*  0.52   0.00    SX    NO    0:00:01
        3   1    8    0  -274.98419307   -0.26E+00* -0.53E-01   95  98 1 -0.11E+00*  0.51   0.00    SX    NO    0:00:01
        4   1    8    0  -275.05114202   -0.67E-01* -0.30E-01   95  98 1 -0.56E-01*  0.50   0.00    SX    NO    0:00:01
        5   1    8    0  -275.07140536   -0.20E-01* -0.33E-01   95  98 1 -0.31E-01*  0.50   2.31    LS   YES    0:00:01
        6   1    8    0  -275.08080459   -0.94E-02*  0.83E-02   89 106 1  0.12E-01*  0.50   1.18    QN   YES    0:00:01
        7   1    7    0  -275.08249781   -0.17E-02*  0.64E-02   93 102 1  0.89E-02*  0.50   1.65    QN   YES    0:00:01
        8   1    7    0  -275.08320846   -0.71E-03*  0.33E-02   93 102 1  0.40E-02*  0.50   1.22    QN   YES    0:00:01
        9   1    7    0  -275.08330798   -0.10E-03*  0.36E-02   93 102 1  0.36E-02*  0.50   1.43    QN   YES    0:00:01
       10   1    6    0  -275.08333995   -0.32E-04* -0.35E-02   93 102 1  0.17E-02*  0.50   1.45    QN   YES    0:00:01
       11   1    6    0  -275.08335171   -0.12E-04* -0.25E-02   93 102 1  0.78E-03*  0.50   1.72    LS   YES    0:00:01
       12   1    6    0  -275.08335300   -0.13E-05*  0.87E-03   95  98 1 -0.54E-03*  0.50   0.71    QN   YES    0:00:01
       13   1    6    0  -275.08335659   -0.36E-05*  0.10E-02   83 100 1 -0.26E-03*  0.50   2.19    LS   YES    0:00:01
       14   1    6    0  -275.08335788   -0.13E-05* -0.18E-02   62 104 1 -0.31E-03*  0.50   0.88    QN   YES    0:00:01
       15   1    6    0  -275.08335883   -0.95E-06* -0.15E-02   62 104 1 -0.17E-03*  0.50   1.84    LS   YES    0:00:01
       16   1    5    0  -275.08335907   -0.24E-06* -0.22E-02   87 101 1 -0.12E-03*  0.50   2.50    LS   YES    0:00:01
       17   1    6    0  -275.08335863    0.44E-06* -0.63E-03   83 100 1  0.33E-03*  0.50   0.08    QN   YES    0:00:01
       18   1    5    0  -275.08335936   -0.73E-06* -0.58E-03   93 102 1 -0.17E-03*  0.50   1.34    QN   YES    0:00:01
       19   1    5    0  -275.08335966   -0.30E-06* -0.87E-03   93 102 1 -0.11E-03*  0.50   2.50    LS   YES    0:00:02
       20   1    6    0  -275.08335947    0.19E-06* -0.45E-03   78 110 1  0.17E-03*  0.50   0.27    LS   YES    0:00:02
       21   1    5    0  -275.08335969   -0.22E-06* -0.95E-03   78 110 1  0.87E-04   0.50   1.19    QN   YES    0:00:02
       22   1    5    0  -275.08335977   -0.89E-07* -0.14E-02   93 102 1 -0.77E-04   0.50   2.50    LS   YES    0:00:02
       23   1    5    0  -275.08335988   -0.11E-06* -0.13E-02   93 102 1 -0.92E-04   0.50   1.15    QN   YES    0:00:02
       24   1    5    0  -275.08335997   -0.91E-07* -0.63E-03   93 102 1 -0.52E-04   0.50   1.49    LS   YES    0:00:02
       25   1    5    0  -275.08335998   -0.10E-07* -0.94E-03   93 102 1 -0.32E-04   0.50   2.50    LS   YES    0:00:02
       26   1    5    0  -275.08335997    0.16E-07* -0.51E-03   80  98 1  0.29E-04   0.50   0.14    QN   YES    0:00:02
       27   1    5    0  -275.08335998   -0.15E-07* -0.77E-03   82 106 1  0.19E-04   0.50   2.50    LS   YES    0:00:02
       28   1    4    0  -275.08335998   -0.21E-08  -0.46E-03   93 102 1 -0.22E-04   0.50   0.58    QN   YES    0:00:02
      Convergence after 28 iterations
       29   1    4    0  -275.08335999   -0.83E-08  -0.46E-03   93 101 1  0.87E-05   0.50   0.58    QN   YES    0:00:02
 
      ************************************************************************************************************************
                                                      Wave function printout:
                       occupation of active orbitals, and spin coupling of open shells (u,d: Spin up or down)
      ************************************************************************************************************************
 
      Note: transformation to natural orbitals
      has been made, which may change the order of the CSFs.
 
      printout of CI-coefficients larger than  0.05 for root  1
      energy=  -29275.092257
      conf/sym  1111     Coeff  Weight
             1  u000   0.95255 0.90735
             3  00u0  -0.30396 0.09239
 
      printout of CI-coefficients larger than  0.05 for root  2
      energy=  -29275.087409
      conf/sym  1111     Coeff  Weight
             2  0u00   0.99809 0.99618
 
      printout of CI-coefficients larger than  0.05 for root  3
      energy=  -29275.082125
      conf/sym  1111     Coeff  Weight
             1  u000   0.30436 0.09264
             3  00u0   0.95170 0.90574
 
      printout of CI-coefficients larger than  0.05 for root  4
      energy=  -29275.071649
      conf/sym  1111     Coeff  Weight
             4  000u   0.99901 0.99802
 
      Natural orbitals and occupation numbers for root  1
      sym 1:   1.000000  -0.000000  -0.000000  -0.000000
 
      Natural orbitals and occupation numbers for root  2
      sym 1:  -0.000000   1.000000   0.000000   0.000000
 
      Natural orbitals and occupation numbers for root  3
      sym 1:  -0.000000   0.000000   1.000000   0.000000
 
      Natural orbitals and occupation numbers for root  4
      sym 1:  -0.000000   0.000000  -0.000000   1.000000
 
      ************************************************************************************************************************
      *                                                                                                                      *
      *                                                    Final results                                                     *
      *                                                                                                                      *
      ************************************************************************************************************************
 
 
++    Wave function specifications:
      -----------------------------
 
      Number of closed shell electrons         190
      Number of electrons in active shells       1
      Max number of holes in RAS1 space          0
      Max nr of electrons in RAS3 space          0
      Number of inactive orbitals               95
      Number of active orbitals                  4
      Number of secondary orbitals              24
      Spin quantum number                      0.5
      State symmetry                             1
--
 
++    Orbital specifications:
      -----------------------
 
      Symmetry species                           1
                                                 a
      Frozen orbitals                            0
      Inactive orbitals                         95
      Active orbitals                            4
      RAS1 orbitals                              0
      RAS2 orbitals                              4
      RAS3 orbitals                              0
      Secondary orbitals                        24
      Deleted orbitals                           0
      Number of basis functions                123
--
 
++    CI expansion specifications:
      ----------------------------
 
      Number of CSFs                             4
      Number of determinants                     4
      Number of root(s) required                 4
      CI roots used                              1     2     3     4
      weights                                0.250 0.250 0.250 0.250
      highest root included in the CI            4
      Root passed to geometry opt.               4
--
 
++    Final optimization conditions:
      ------------------------------
 
      Average CI energy                          -29275.08336000
      RASSCF energy for state  4                 -29275.07164853
      Super-CI energy                                -0.00000000
      RASSCF energy change                           -0.00000001
      Max change in MO coefficients               0.380E-03
      Max non-diagonal density matrix element    -0.463E-03
      Maximum BLB matrix element                  0.868E-05
      (orbital pair  93, 101 in symmetry   1)
      Norm of electronic gradient            0.457E-01
--
 
 
      Final state energy(ies):
      ------------------------
 
::    RASSCF root number  1 Total energy: -29275.09225745
::    RASSCF root number  2 Total energy: -29275.08740870
::    RASSCF root number  3 Total energy: -29275.08212534
::    RASSCF root number  4 Total energy: -29275.07164853
 
++    Molecular orbitals:
      -------------------
 
      Pseudonatural active orbitals and approximate occupation numbers
 
 
 
 
      Molecular orbitals for symmetry species 1: a  
 
 
      Orbital                1         2         3         4         5         6         7         8         9        10
      Energy        -4260.2712 -804.2296 -674.9014 -674.9012 -674.9007 -206.2679 -169.6684 -169.6684 -169.6596 -135.0935
      Occ. No.          2.0000    2.0000    2.0000    2.0000    2.0000    2.0000    2.0000    2.0000    2.0000    2.0000
 
    1 C1     1s        -0.0000   -0.0000   -0.0000   -0.0000    0.0000   -0.0000   -0.0000    0.0000    0.0000    0.0000
    2 C1     2s        -0.0000   -0.0000    0.0000    0.0000    0.0000   -0.0000    0.0000    0.0000   -0.0000    0.0000
    3 C1     2px        0.0000    0.0000    0.0000   -0.0000   -0.0000    0.0000    0.0000    0.0000   -0.0000   -0.0000
    4 C1     2py       -0.0000   -0.0000    0.0000    0.0000   -0.0000   -0.0000    0.0000   -0.0000   -0.0000   -0.0000
    5 C1     2pz       -0.0000    0.0000   -0.0000    0.0000    0.0000   -0.0000    0.0000    0.0000   -0.0000    0.0000
    6 S2     1s        -0.0000   -0.0000    0.0000   -0.0000   -0.0000   -0.0000    0.0000    0.0000   -0.0000   -0.0000
    7 S2     2s        -0.0000   -0.0000    0.0000   -0.0000   -0.0000   -0.0000    0.0000    0.0000   -0.0000   -0.0000
    8 S2     3s        -0.0000   -0.0000    0.0000   -0.0000    0.0000   -0.0000    0.0000    0.0000    0.0000   -0.0000
    9 S2     2px       -0.0000   -0.0000   -0.0000    0.0000    0.0000   -0.0000   -0.0000   -0.0000    0.0000    0.0000
   10 S2     3px       -0.0000   -0.0000   -0.0000    0.0000    0.0000   -0.0000   -0.0000   -0.0000   -0.0000    0.0000
   11 S2     2py        0.0000    0.0000    0.0000    0.0000    0.0000    0.0000    0.0000    0.0000    0.0000   -0.0000
   12 S2     3py        0.0000    0.0000    0.0000    0.0000    0.0000    0.0000    0.0000    0.0000   -0.0000   -0.0000
   13 S2     2pz       -0.0000    0.0000    0.0000    0.0000    0.0000   -0.0000   -0.0000    0.0000    0.0000   -0.0000
   14 S2     3pz       -0.0000   -0.0000   -0.0000   -0.0000    0.0000   -0.0000   -0.0000   -0.0000    0.0000    0.0000
   15 O3     1s         0.0000    0.0000    0.0000    0.0000   -0.0000    0.0000    0.0000    0.0000   -0.0000   -0.0000
   16 O3     2s         0.0000    0.0000    0.0000    0.0000    0.0000    0.0000    0.0000    0.0000    0.0000   -0.0000
   17 O3     2px       -0.0000   -0.0000    0.0000    0.0000   -0.0000   -0.0000    0.0000    0.0000    0.0000   -0.0000
   18 O3     2py        0.0000    0.0000   -0.0000   -0.0000    0.0000    0.0000   -0.0000   -0.0000    0.0000    0.0000
   19 O3     2pz       -0.0000   -0.0000    0.0000    0.0000   -0.0000   -0.0000    0.0000    0.0000   -0.0000   -0.0000
   20 O4     1s         0.0000    0.0000    0.0000   -0.0000   -0.0000    0.0000    0.0000   -0.0000   -0.0000   -0.0000
   21 O4     2s         0.0000    0.0000    0.0000   -0.0000    0.0000    0.0000    0.0000   -0.0000    0.0000   -0.0000
   22 O4     2px       -0.0000   -0.0000    0.0000   -0.0000   -0.0000   -0.0000    0.0000   -0.0000    0.0000   -0.0000
   23 O4     2py        0.0000    0.0000   -0.0000    0.0000    0.0000    0.0000   -0.0000    0.0000    0.0000    0.0000
   24 O4     2pz        0.0000    0.0000   -0.0000    0.0000    0.0000    0.0000   -0.0000    0.0000    0.0000    0.0000
   25 U5     1s         1.0000   -0.0000   -0.0000    0.0000    0.0000    0.0000   -0.0000   -0.0000   -0.0000    0.0000
   26 U5     2s         0.0000    1.0000   -0.0000    0.0000   -0.0000   -0.0000    0.0000    0.0000   -0.0000   -0.0000
   27 U5     3s        -0.0000    0.0000    0.0000   -0.0000    0.0000    1.0000   -0.0000    0.0000   -0.0000   -0.0000
   28 U5     4s         0.0000   -0.0000   -0.0000    0.0000    0.0000   -0.0000   -0.0000   -0.0000    0.0000   -0.0000
   29 U5     5s        -0.0000    0.0000    0.0000   -0.0000    0.0000    0.0000   -0.0000    0.0000   -0.0000    0.0000
   30 U5     6s         0.0000   -0.0000    0.0000    0.0000    0.0000    0.0000   -0.0000   -0.0000   -0.0000   -0.0000
   31 U5     7s        -0.0000   -0.0000    0.0000    0.0000   -0.0000   -0.0000   -0.0000   -0.0000    0.0000    0.0000
   32 U5     2px       -0.0000    0.0000    0.8114    0.0000    0.5844   -0.0000   -0.0000   -0.0000   -0.0000    0.0000
   33 U5     3px        0.0000   -0.0000    0.0000    0.0000    0.0000    0.0000    0.8043    0.0000    0.5943    0.0000
   34 U5     4px       -0.0000    0.0000   -0.0000   -0.0000   -0.0000    0.0000   -0.0000   -0.0000   -0.0000    0.0000
   35 U5     5px        0.0000    0.0000    0.0000    0.0000    0.0000   -0.0000    0.0000    0.0000    0.0000   -0.0000
   36 U5     6px        0.0000    0.0000   -0.0000   -0.0000    0.0000   -0.0000   -0.0000   -0.0000    0.0000   -0.0000
   37 U5     7px       -0.0000   -0.0000   -0.0000   -0.0000    0.0000   -0.0000    0.0000   -0.0000    0.0000   -0.0000
   38 U5     2py       -0.0000    0.0000   -0.5844   -0.0000    0.8114    0.0000    0.0000    0.0000   -0.0000   -0.0000
   39 U5     3py       -0.0000    0.0000   -0.0000   -0.0000    0.0000    0.0000   -0.5943   -0.0000    0.8043   -0.0000
   40 U5     4py        0.0000   -0.0000    0.0000    0.0000   -0.0000    0.0000    0.0000    0.0000   -0.0000   -0.0000
   41 U5     5py       -0.0000    0.0000   -0.0000   -0.0000    0.0000   -0.0000   -0.0000   -0.0000    0.0000    0.0000
   42 U5     6py        0.0000    0.0000    0.0000   -0.0000    0.0000   -0.0000    0.0000    0.0000    0.0000    0.0000
   43 U5     7py        0.0000    0.0000    0.0000   -0.0000    0.0000    0.0000    0.0000    0.0000    0.0000    0.0000
   44 U5     2pz       -0.0000   -0.0000   -0.0000    1.0000    0.0000    0.0000    0.0000   -0.0000    0.0000    0.0000
   45 U5     3pz        0.0000   -0.0000   -0.0000    0.0000    0.0000   -0.0000   -0.0000    1.0000    0.0000    0.0000
   46 U5     4pz       -0.0000    0.0000    0.0000   -0.0000   -0.0000   -0.0000    0.0000   -0.0000   -0.0000   -0.0000
   47 U5     5pz       -0.0000   -0.0000   -0.0000    0.0000   -0.0000    0.0000   -0.0000    0.0000    0.0000    0.0000
   48 U5     6pz       -0.0000    0.0000   -0.0000   -0.0000   -0.0000   -0.0000    0.0000   -0.0000   -0.0000   -0.0000
   49 U5     7pz       -0.0000    0.0000   -0.0000    0.0000    0.0000   -0.0000   -0.0000    0.0000   -0.0000    0.0000
   50 U5     3d2-       0.0000   -0.0000   -0.0000    0.0000    0.0000   -0.0001   -0.0000    0.0000    0.0000    0.4591
   51 U5     4d2-      -0.0000    0.0000    0.0000   -0.0000   -0.0000   -0.0000    0.0000   -0.0000    0.0000   -0.0000
   52 U5     5d2-      -0.0000    0.0000   -0.0000    0.0000    0.0000    0.0000   -0.0000   -0.0000   -0.0000    0.0000
   53 U5     6d2-       0.0000    0.0000   -0.0000    0.0000    0.0000    0.0000   -0.0000    0.0000   -0.0000   -0.0000
   54 U5     3d1-       0.0000    0.0000    0.0000   -0.0000   -0.0000    0.0000    0.0000    0.0000   -0.0000    0.0000
   55 U5     4d1-       0.0000   -0.0000   -0.0000    0.0000    0.0000    0.0000    0.0000    0.0000   -0.0000   -0.0000
   56 U5     5d1-      -0.0000    0.0000    0.0000    0.0000   -0.0000   -0.0000   -0.0000   -0.0000    0.0000    0.0000
   57 U5     6d1-      -0.0000   -0.0000    0.0000   -0.0000    0.0000    0.0000    0.0000   -0.0000    0.0000    0.0000
   58 U5     3d0       -0.0000    0.0000   -0.0000   -0.0000   -0.0000    0.0000   -0.0000   -0.0000   -0.0000    0.8773
   59 U5     4d0       -0.0000   -0.0000    0.0000    0.0000    0.0000    0.0000   -0.0000   -0.0000   -0.0000   -0.0000
   60 U5     5d0        0.0000   -0.0000    0.0000   -0.0000   -0.0000   -0.0000    0.0000    0.0000    0.0000    0.0000
   61 U5     6d0       -0.0000   -0.0000   -0.0000    0.0000    0.0000    0.0000   -0.0000    0.0000    0.0000   -0.0000
   62 U5     3d1+      -0.0000   -0.0000   -0.0000    0.0000   -0.0000   -0.0000   -0.0000    0.0000   -0.0000   -0.0000
   63 U5     4d1+      -0.0000    0.0000    0.0000   -0.0000    0.0000   -0.0000   -0.0000    0.0000   -0.0000    0.0000
   64 U5     5d1+       0.0000   -0.0000   -0.0000    0.0000   -0.0000    0.0000    0.0000   -0.0000    0.0000   -0.0000
   65 U5     6d1+      -0.0000   -0.0000    0.0000    0.0000    0.0000   -0.0000    0.0000   -0.0000    0.0000   -0.0000
   66 U5     3d2+      -0.0000    0.0000    0.0000    0.0000    0.0000    0.0000    0.0000   -0.0000    0.0000   -0.1399
   67 U5     4d2+       0.0000   -0.0000   -0.0000   -0.0000   -0.0000    0.0000    0.0000    0.0000   -0.0000    0.0000
   68 U5     5d2+       0.0000   -0.0000    0.0000    0.0000    0.0000   -0.0000   -0.0000    0.0000    0.0000   -0.0000
   69 U5     6d2+      -0.0000   -0.0000    0.0000    0.0000    0.0000   -0.0000   -0.0000   -0.0000    0.0000    0.0000
   70 U5     4f3-       0.0000   -0.0000   -0.0000   -0.0000   -0.0000   -0.0000   -0.0000   -0.0000   -0.0000    0.0000
   71 U5     5f3-       0.0000    0.0000    0.0000    0.0000    0.0000   -0.0000    0.0000    0.0000    0.0000   -0.0000
   72 U5     4f2-      -0.0000    0.0000   -0.0000   -0.0000   -0.0000   -0.0000    0.0000   -0.0000   -0.0000   -0.0000
   73 U5     5f2-       0.0000   -0.0000   -0.0000    0.0000    0.0000    0.0000   -0.0000    0.0000   -0.0000    0.0000
   74 U5     4f1-      -0.0000    0.0000   -0.0000   -0.0000    0.0000    0.0000   -0.0000   -0.0000    0.0000    0.0000
   75 U5     5f1-      -0.0000    0.0000   -0.0000    0.0000   -0.0000    0.0000    0.0000    0.0000   -0.0000    0.0000
   76 U5     4f0        0.0000    0.0000   -0.0000    0.0000   -0.0000    0.0000   -0.0000    0.0000    0.0000   -0.0000
   77 U5     5f0        0.0000    0.0000    0.0000   -0.0000   -0.0000    0.0000    0.0000   -0.0000   -0.0000   -0.0000
   78 U5     4f1+      -0.0000   -0.0000    0.0000    0.0000    0.0000    0.0000    0.0000    0.0000    0.0000    0.0000
   79 U5     5f1+       0.0000   -0.0000   -0.0000   -0.0000   -0.0000    0.0000   -0.0000   -0.0000   -0.0000   -0.0000
   80 U5     4f2+      -0.0000    0.0000   -0.0000    0.0000   -0.0000   -0.0000   -0.0000    0.0000   -0.0000    0.0000
   81 U5     5f2+      -0.0000   -0.0000    0.0000   -0.0000   -0.0000    0.0000    0.0000   -0.0000    0.0000    0.0000
   82 U5     4f3+      -0.0000   -0.0000   -0.0000   -0.0000    0.0000    0.0000   -0.0000   -0.0000    0.0000   -0.0000
   83 U5     5f3+      -0.0000   -0.0000    0.0000    0.0000   -0.0000    0.0000    0.0000    0.0000   -0.0000   -0.0000
   84 O6     1s         0.0000    0.0000    0.0000    0.0000    0.0000    0.0000    0.0000    0.0000    0.0000    0.0000
   85 O6     2s        -0.0000   -0.0000    0.0000   -0.0000    0.0000   -0.0000    0.0000    0.0000    0.0000    0.0000
   86 O6     2px       -0.0000   -0.0000   -0.0000    0.0000    0.0000   -0.0000   -0.0000   -0.0000    0.0000    0.0000
   87 O6     2py       -0.0000   -0.0000    0.0000   -0.0000    0.0000   -0.0000    0.0000    0.0000    0.0000    0.0000
   88 O6     2pz       -0.0000   -0.0000    0.0000   -0.0000    0.0000    0.0000    0.0000   -0.0000    0.0000   -0.0000
   89 O7     1s         0.0000    0.0000   -0.0000   -0.0000    0.0000    0.0000   -0.0000   -0.0000    0.0000   -0.0000
   90 O7     2s         0.0000    0.0000   -0.0000   -0.0000   -0.0000    0.0000   -0.0000   -0.0000   -0.0000   -0.0000
   91 O7     2px        0.0000    0.0000    0.0000    0.0000   -0.0000    0.0000    0.0000    0.0000    0.0000    0.0000
   92 O7     2py       -0.0000   -0.0000   -0.0000   -0.0000    0.0000   -0.0000   -0.0000   -0.0000    0.0000   -0.0000
   93 O7     2pz        0.0000    0.0000    0.0000    0.0000   -0.0000    0.0000    0.0000    0.0000   -0.0000    0.0000
   94 S8     1s        -0.0000   -0.0000   -0.0000   -0.0000    0.0000   -0.0000   -0.0000   -0.0000    0.0000   -0.0000
   95 S8     2s        -0.0000   -0.0000   -0.0000   -0.0000    0.0000   -0.0000   -0.0000   -0.0000    0.0000   -0.0000
   96 S8     3s        -0.0000   -0.0000   -0.0000   -0.0000   -0.0000   -0.0000   -0.0000   -0.0000   -0.0000   -0.0000
   97 S8     2px        0.0000    0.0000   -0.0000   -0.0000    0.0000    0.0000   -0.0000   -0.0000    0.0000   -0.0000
   98 S8     3px        0.0000    0.0000   -0.0000   -0.0000    0.0000    0.0000   -0.0000   -0.0000   -0.0000   -0.0000
   99 S8     2py       -0.0000   -0.0000    0.0000   -0.0000    0.0000   -0.0000    0.0000    0.0000    0.0000    0.0000
  100 S8     3py       -0.0000   -0.0000    0.0000   -0.0000    0.0000   -0.0000    0.0000    0.0000   -0.0000    0.0000
  101 S8     2pz        0.0000   -0.0000    0.0000    0.0000   -0.0000    0.0000   -0.0000    0.0000   -0.0000   -0.0000
  102 S8     3pz        0.0000   -0.0000    0.0000   -0.0000   -0.0000    0.0000   -0.0000   -0.0000   -0.0000   -0.0000
  103 C9     1s        -0.0000   -0.0000    0.0000    0.0000   -0.0000   -0.0000    0.0000    0.0000   -0.0000    0.0000
  104 C9     2s        -0.0000   -0.0000   -0.0000    0.0000   -0.0000   -0.0000   -0.0000    0.0000    0.0000    0.0000
  105 C9     2px       -0.0000   -0.0000    0.0000   -0.0000   -0.0000   -0.0000    0.0000   -0.0000   -0.0000    0.0000
  106 C9     2py        0.0000    0.0000    0.0000   -0.0000   -0.0000    0.0000    0.0000    0.0000   -0.0000    0.0000
  107 C9     2pz        0.0000   -0.0000   -0.0000    0.0000   -0.0000    0.0000   -0.0000    0.0000   -0.0000    0.0000
  108 O10    1s         0.0000    0.0000   -0.0000   -0.0000   -0.0000    0.0000   -0.0000    0.0000   -0.0000    0.0000
  109 O10    2s        -0.0000   -0.0000   -0.0000   -0.0000   -0.0000   -0.0000   -0.0000    0.0000   -0.0000    0.0000
  110 O10    2px        0.0000    0.0000   -0.0000   -0.0000    0.0000    0.0000   -0.0000   -0.0000    0.0000   -0.0000
  111 O10    2py        0.0000    0.0000    0.0000    0.0000    0.0000    0.0000    0.0000    0.0000    0.0000   -0.0000
  112 O10    2pz        0.0000    0.0000    0.0000   -0.0000   -0.0000    0.0000    0.0000   -0.0000    0.0000   -0.0000
  113 O11    1s         0.0000    0.0000   -0.0000    0.0000    0.0000    0.0000   -0.0000    0.0000    0.0000   -0.0000
  114 O11    2s         0.0000    0.0000   -0.0000    0.0000   -0.0000    0.0000   -0.0000    0.0000   -0.0000   -0.0000
  115 O11    2px        0.0000    0.0000    0.0000   -0.0000   -0.0000    0.0000    0.0000   -0.0000    0.0000    0.0000
  116 O11    2py       -0.0000   -0.0000   -0.0000    0.0000    0.0000   -0.0000   -0.0000    0.0000    0.0000   -0.0000
  117 O11    2pz       -0.0000   -0.0000   -0.0000    0.0000    0.0000   -0.0000   -0.0000    0.0000    0.0000   -0.0000
  118 H12    1s         0.0000    0.0000    0.0000   -0.0000   -0.0000    0.0000    0.0000   -0.0000   -0.0000    0.0000
  119 H13    1s        -0.0000   -0.0000   -0.0000   -0.0000    0.0000   -0.0000   -0.0000   -0.0000   -0.0000   -0.0000
  120 H14    1s         0.0000    0.0000    0.0000    0.0000   -0.0000    0.0000    0.0000    0.0000   -0.0000    0.0000
  121 H15    1s         0.0000    0.0000   -0.0000   -0.0000    0.0000    0.0000   -0.0000   -0.0000    0.0000    0.0000
  122 H16    1s        -0.0000   -0.0000    0.0000   -0.0000   -0.0000   -0.0000    0.0000    0.0000    0.0000   -0.0000
  123 H17    1s         0.0000    0.0000   -0.0000    0.0000    0.0000    0.0000   -0.0000    0.0000    0.0000    0.0000
 
 
      Orbital               11        12        13        14        15        16        17        18        19        20
      Energy         -135.0933 -135.0899 -135.0898 -135.0886  -92.3990  -92.3990  -54.2520  -42.0350  -42.0349  -42.0195
      Occ. No.          2.0000    2.0000    2.0000    2.0000    2.0000    2.0000    2.0000    2.0000    2.0000    2.0000
 
    1 C1     1s         0.0000    0.0000    0.0000   -0.0000    0.0000   -0.0000   -0.0000   -0.0000   -0.0000    0.0000
    2 C1     2s         0.0000    0.0000    0.0000   -0.0000   -0.0000    0.0000   -0.0000   -0.0000    0.0000    0.0000
    3 C1     2px       -0.0000   -0.0000   -0.0000   -0.0000    0.0000   -0.0000    0.0000    0.0000    0.0000   -0.0000
    4 C1     2py       -0.0000   -0.0000   -0.0000   -0.0000   -0.0000    0.0000   -0.0000    0.0000    0.0000   -0.0000
    5 C1     2pz       -0.0000   -0.0000   -0.0000   -0.0000    0.0000    0.0000    0.0000    0.0000    0.0000    0.0000
    6 S2     1s         0.0000   -0.0000   -0.0000   -0.0000   -0.7129    0.7012   -0.0000   -0.0000    0.0000   -0.0000
    7 S2     2s         0.0000    0.0000   -0.0000   -0.0000    0.0000   -0.0000   -0.0000   -0.0000    0.0000   -0.0000
    8 S2     3s         0.0000    0.0000   -0.0000   -0.0000    0.0003   -0.0003    0.0000   -0.0000    0.0000   -0.0000
    9 S2     2px       -0.0000   -0.0000    0.0000   -0.0000    0.0001   -0.0001   -0.0000    0.0000   -0.0000    0.0000
   10 S2     3px       -0.0000   -0.0000    0.0000   -0.0000   -0.0000    0.0000   -0.0000    0.0000   -0.0000    0.0000
   11 S2     2py        0.0000   -0.0000    0.0000    0.0000   -0.0000    0.0000    0.0000   -0.0000    0.0000    0.0000
   12 S2     3py       -0.0000   -0.0000    0.0000   -0.0000   -0.0000   -0.0000    0.0000   -0.0000    0.0000    0.0000
   13 S2     2pz        0.0000    0.0000   -0.0000   -0.0000   -0.0000    0.0000   -0.0000    0.0000   -0.0000   -0.0000
   14 S2     3pz       -0.0000   -0.0000   -0.0000    0.0000    0.0000   -0.0000   -0.0000    0.0000   -0.0000   -0.0000
   15 O3     1s         0.0000   -0.0000   -0.0000   -0.0000   -0.0000    0.0000    0.0000    0.0000    0.0000   -0.0000
   16 O3     2s         0.0000   -0.0000   -0.0000   -0.0000   -0.0000    0.0000    0.0000    0.0000    0.0000   -0.0000
   17 O3     2px        0.0000    0.0000    0.0000    0.0000    0.0000   -0.0000   -0.0000    0.0000    0.0000    0.0000
   18 O3     2py       -0.0000    0.0000    0.0000   -0.0000   -0.0000   -0.0000    0.0000   -0.0000   -0.0000    0.0000
   19 O3     2pz        0.0000   -0.0000   -0.0000    0.0000    0.0000   -0.0000   -0.0000    0.0000    0.0000   -0.0000
   20 O4     1s        -0.0000    0.0000   -0.0000   -0.0000   -0.0000    0.0000    0.0000   -0.0000    0.0000   -0.0000
   21 O4     2s        -0.0000    0.0000   -0.0000   -0.0000   -0.0000    0.0000    0.0000   -0.0000    0.0000   -0.0000
   22 O4     2px       -0.0000   -0.0000    0.0000    0.0000    0.0000   -0.0000   -0.0000   -0.0000    0.0000    0.0000
   23 O4     2py        0.0000   -0.0000    0.0000   -0.0000   -0.0000   -0.0000    0.0000    0.0000   -0.0000    0.0000
   24 O4     2pz        0.0000   -0.0000    0.0000   -0.0000   -0.0000    0.0000    0.0000    0.0000   -0.0000    0.0000
   25 U5     1s         0.0000    0.0000   -0.0000    0.0000    0.0000   -0.0000   -0.0000    0.0000    0.0000    0.0000
   26 U5     2s         0.0000    0.0000   -0.0000   -0.0000    0.0000   -0.0000    0.0000   -0.0000    0.0000   -0.0000
   27 U5     3s         0.0000    0.0000   -0.0000   -0.0001    0.0000   -0.0000    0.0000    0.0000    0.0000   -0.0000
   28 U5     4s        -0.0000    0.0000    0.0000   -0.0000    0.0000   -0.0000    1.0000    0.0000   -0.0000   -0.0000
   29 U5     5s         0.0000    0.0000   -0.0000    0.0000    0.0000   -0.0000   -0.0001   -0.0000    0.0000    0.0000
   30 U5     6s        -0.0000    0.0000    0.0000   -0.0000    0.0000   -0.0000    0.0000    0.0000    0.0000   -0.0000
   31 U5     7s        -0.0000    0.0000    0.0000    0.0000    0.0000   -0.0000   -0.0000    0.0000    0.0000   -0.0000
   32 U5     2px        0.0000    0.0000   -0.0000   -0.0000    0.0000    0.0000    0.0000   -0.0000    0.0000    0.0000
   33 U5     3px        0.0000    0.0000   -0.0000    0.0000    0.0000    0.0000   -0.0000   -0.0000    0.0000    0.0000
   34 U5     4px       -0.0000   -0.0000    0.0000   -0.0000    0.0000    0.0000    0.0000   -0.0000    0.8046    0.5938
   35 U5     5px        0.0000    0.0000   -0.0000    0.0000    0.0000    0.0000    0.0000    0.0000   -0.0002   -0.0001
   36 U5     6px        0.0000    0.0000   -0.0000    0.0000    0.0000    0.0000    0.0000   -0.0000    0.0000    0.0000
   37 U5     7px        0.0000   -0.0000    0.0000    0.0000    0.0000    0.0000    0.0000    0.0000   -0.0000   -0.0000
   38 U5     2py       -0.0000    0.0000   -0.0000    0.0000   -0.0000   -0.0000   -0.0000    0.0000   -0.0000    0.0000
   39 U5     3py       -0.0000    0.0000    0.0000    0.0000   -0.0000   -0.0000   -0.0000    0.0000   -0.0000    0.0000
   40 U5     4py        0.0000   -0.0000   -0.0000   -0.0000   -0.0000   -0.0000    0.0000    0.0000   -0.5938    0.8046
   41 U5     5py       -0.0000    0.0000    0.0000    0.0000   -0.0000   -0.0000   -0.0000   -0.0000    0.0001   -0.0001
   42 U5     6py       -0.0000    0.0000    0.0000    0.0000   -0.0000   -0.0000   -0.0000    0.0000   -0.0000    0.0000
   43 U5     7py       -0.0000    0.0000   -0.0000   -0.0000   -0.0000   -0.0000   -0.0000   -0.0000    0.0000   -0.0000
   44 U5     2pz       -0.0000   -0.0000   -0.0000    0.0000    0.0000   -0.0000   -0.0000    0.0000    0.0000   -0.0000
   45 U5     3pz       -0.0000   -0.0000    0.0000    0.0000    0.0000   -0.0000    0.0000    0.0000    0.0000    0.0000
   46 U5     4pz       -0.0000    0.0000    0.0000   -0.0000    0.0000   -0.0000   -0.0000    1.0000    0.0000    0.0000
   47 U5     5pz        0.0000   -0.0000   -0.0000    0.0000   -0.0000    0.0000   -0.0000   -0.0002   -0.0000   -0.0000
   48 U5     6pz        0.0000    0.0000    0.0000    0.0000   -0.0000    0.0000    0.0000    0.0000    0.0000    0.0000
   49 U5     7pz       -0.0000   -0.0000   -0.0000    0.0000   -0.0000    0.0000   -0.0000   -0.0000   -0.0000   -0.0000
   50 U5     3d2-       0.0000   -0.0000    0.2917   -0.8391   -0.0000    0.0000   -0.0000    0.0000   -0.0000   -0.0000
   51 U5     4d2-      -0.0000    0.0000   -0.0000    0.0000   -0.0000    0.0000   -0.0003    0.0000    0.0000    0.0000
   52 U5     5d2-       0.0000    0.0000    0.0000   -0.0000   -0.0000    0.0000    0.0000    0.0000    0.0000    0.0000
   53 U5     6d2-       0.0000    0.0000   -0.0000   -0.0000   -0.0000    0.0000    0.0000    0.0000    0.0000    0.0000
   54 U5     3d1-      -0.5887    0.8083    0.0000   -0.0000   -0.0000    0.0000   -0.0000   -0.0000   -0.0000    0.0000
   55 U5     4d1-       0.0000   -0.0000   -0.0000    0.0000   -0.0000   -0.0000    0.0000    0.0000    0.0000   -0.0000
   56 U5     5d1-      -0.0000    0.0000    0.0000    0.0000    0.0000    0.0000    0.0000    0.0000    0.0000   -0.0000
   57 U5     6d1-      -0.0000   -0.0000    0.0000    0.0000    0.0000    0.0000    0.0000    0.0000    0.0000    0.0000
   58 U5     3d0        0.0000    0.0000   -0.0001    0.4799   -0.0000    0.0000    0.0000    0.0000   -0.0000    0.0000
   59 U5     4d0       -0.0000   -0.0000   -0.0000   -0.0000   -0.0000    0.0000    0.0002   -0.0000   -0.0000   -0.0000
   60 U5     5d0        0.0000   -0.0000    0.0000   -0.0000   -0.0000    0.0000   -0.0000   -0.0000    0.0000   -0.0000
   61 U5     6d0        0.0000   -0.0000   -0.0000    0.0000   -0.0000    0.0000    0.0000   -0.0000    0.0000    0.0000
   62 U5     3d1+       0.8083    0.5887    0.0000    0.0000   -0.0000    0.0000    0.0000   -0.0000    0.0000    0.0000
   63 U5     4d1+      -0.0000   -0.0000   -0.0000   -0.0000   -0.0000   -0.0000   -0.0000    0.0000   -0.0000   -0.0000
   64 U5     5d1+       0.0000    0.0000    0.0000    0.0000    0.0000    0.0000   -0.0000   -0.0000   -0.0000   -0.0000
   65 U5     6d1+      -0.0000   -0.0000   -0.0000    0.0000    0.0000    0.0000   -0.0000    0.0000   -0.0000   -0.0000
   66 U5     3d2+      -0.0000   -0.0000    0.9565    0.2560    0.0000   -0.0000    0.0000   -0.0000   -0.0000    0.0000
   67 U5     4d2+       0.0000    0.0000   -0.0000   -0.0000    0.0000   -0.0000    0.0001   -0.0000    0.0000   -0.0000
   68 U5     5d2+      -0.0000   -0.0000    0.0000    0.0000    0.0000   -0.0000   -0.0000   -0.0000    0.0000   -0.0000
   69 U5     6d2+      -0.0000   -0.0000   -0.0000    0.0000    0.0000   -0.0000   -0.0000    0.0000    0.0000   -0.0000
   70 U5     4f3-       0.0000    0.0000    0.0000   -0.0000   -0.0000   -0.0000   -0.0000    0.0000   -0.0002   -0.0001
   71 U5     5f3-       0.0000    0.0000    0.0000    0.0000   -0.0000   -0.0000   -0.0000   -0.0000    0.0000    0.0000
   72 U5     4f2-      -0.0000    0.0000   -0.0000    0.0000   -0.0000    0.0000    0.0000   -0.0002   -0.0000   -0.0000
   73 U5     5f2-       0.0000   -0.0000   -0.0000   -0.0000    0.0000    0.0000   -0.0000    0.0000    0.0000    0.0000
   74 U5     4f1-       0.0000   -0.0000    0.0000    0.0000    0.0000    0.0000   -0.0000    0.0000   -0.0000    0.0001
   75 U5     5f1-       0.0000   -0.0000    0.0000    0.0000    0.0000    0.0000   -0.0000   -0.0000    0.0000   -0.0000
   76 U5     4f0       -0.0000   -0.0000    0.0000   -0.0000   -0.0000   -0.0000    0.0000    0.0001    0.0000    0.0000
   77 U5     5f0        0.0000    0.0000   -0.0000    0.0000    0.0000   -0.0000   -0.0000   -0.0000    0.0000    0.0000
   78 U5     4f1+      -0.0000   -0.0000   -0.0000    0.0000   -0.0000   -0.0000   -0.0000   -0.0000    0.0001    0.0001
   79 U5     5f1+      -0.0000    0.0000   -0.0000   -0.0000   -0.0000   -0.0000    0.0000    0.0000   -0.0000   -0.0000
   80 U5     4f2+       0.0000    0.0000   -0.0000   -0.0000   -0.0000   -0.0000   -0.0000    0.0000    0.0000   -0.0000
   81 U5     5f2+      -0.0000    0.0000   -0.0000   -0.0000   -0.0000   -0.0000   -0.0000   -0.0000   -0.0000   -0.0000
   82 U5     4f3+      -0.0000   -0.0000    0.0000    0.0000   -0.0000   -0.0000   -0.0000    0.0000   -0.0001    0.0002
   83 U5     5f3+       0.0000   -0.0000    0.0000    0.0000   -0.0000   -0.0000   -0.0000   -0.0000    0.0000   -0.0000
   84 O6     1s        -0.0000   -0.0000   -0.0000    0.0000    0.0000    0.0000    0.0000   -0.0000    0.0000    0.0000
   85 O6     2s        -0.0000   -0.0000   -0.0000    0.0000    0.0000    0.0000    0.0000   -0.0000    0.0000    0.0000
   86 O6     2px       -0.0000   -0.0000    0.0000    0.0000   -0.0000   -0.0000   -0.0000   -0.0000   -0.0000    0.0000
   87 O6     2py       -0.0000   -0.0000   -0.0000    0.0000    0.0000   -0.0000   -0.0000    0.0000    0.0000    0.0000
   88 O6     2pz       -0.0000    0.0000    0.0000    0.0000    0.0000    0.0000    0.0000   -0.0000    0.0000    0.0000
   89 O7     1s         0.0000   -0.0000   -0.0000   -0.0000    0.0000    0.0000    0.0000   -0.0000   -0.0000    0.0000
   90 O7     2s         0.0000   -0.0000   -0.0000   -0.0000    0.0000    0.0000    0.0000   -0.0000   -0.0000    0.0000
   91 O7     2px       -0.0000   -0.0000   -0.0000   -0.0000    0.0000    0.0000    0.0000    0.0000    0.0000    0.0000
   92 O7     2py        0.0000   -0.0000   -0.0000    0.0000   -0.0000    0.0000   -0.0000   -0.0000   -0.0000    0.0000
   93 O7     2pz       -0.0000    0.0000    0.0000   -0.0000    0.0000    0.0000    0.0000    0.0000    0.0000   -0.0000
   94 S8     1s         0.0000    0.0000   -0.0000   -0.0000    0.7012    0.7129   -0.0000    0.0000   -0.0000    0.0000
   95 S8     2s         0.0000    0.0000   -0.0000   -0.0000   -0.0000   -0.0000   -0.0000    0.0000   -0.0000    0.0000
   96 S8     3s         0.0000    0.0000   -0.0000   -0.0000   -0.0003   -0.0003    0.0000    0.0000   -0.0000    0.0000
   97 S8     2px        0.0000    0.0000   -0.0000    0.0000    0.0001    0.0001    0.0000    0.0000   -0.0000    0.0000
   98 S8     3px       -0.0000    0.0000   -0.0000    0.0000   -0.0000   -0.0000    0.0000   -0.0000   -0.0000    0.0000
   99 S8     2py       -0.0000   -0.0000   -0.0000   -0.0000   -0.0000   -0.0000   -0.0000   -0.0000    0.0000    0.0000
  100 S8     3py       -0.0000   -0.0000   -0.0000    0.0000   -0.0000    0.0000   -0.0000   -0.0000    0.0000    0.0000
  101 S8     2pz       -0.0000   -0.0000    0.0000    0.0000    0.0000    0.0000    0.0000    0.0000   -0.0000   -0.0000
  102 S8     3pz        0.0000    0.0000    0.0000    0.0000   -0.0000   -0.0000    0.0000    0.0000   -0.0000   -0.0000
  103 C9     1s         0.0000   -0.0000    0.0000   -0.0000   -0.0000   -0.0000   -0.0000    0.0000    0.0000   -0.0000
  104 C9     2s         0.0000   -0.0000    0.0000   -0.0000    0.0000    0.0000   -0.0000    0.0000   -0.0000   -0.0000
  105 C9     2px       -0.0000   -0.0000    0.0000    0.0000    0.0000    0.0000   -0.0000    0.0000    0.0000   -0.0000
  106 C9     2py       -0.0000    0.0000    0.0000    0.0000   -0.0000   -0.0000    0.0000    0.0000    0.0000   -0.0000
  107 C9     2pz        0.0000    0.0000    0.0000   -0.0000    0.0000    0.0000   -0.0000    0.0000    0.0000    0.0000
  108 O10    1s         0.0000   -0.0000   -0.0000    0.0000   -0.0000    0.0000    0.0000   -0.0000   -0.0000   -0.0000
  109 O10    2s         0.0000   -0.0000   -0.0000    0.0000   -0.0000    0.0000    0.0000   -0.0000   -0.0000   -0.0000
  110 O10    2px        0.0000    0.0000   -0.0000   -0.0000   -0.0000    0.0000    0.0000   -0.0000   -0.0000    0.0000
  111 O10    2py        0.0000    0.0000    0.0000   -0.0000    0.0000    0.0000    0.0000    0.0000    0.0000    0.0000
  112 O10    2pz        0.0000   -0.0000   -0.0000   -0.0000   -0.0000   -0.0000   -0.0000   -0.0000    0.0000    0.0000
  113 O11    1s        -0.0000    0.0000   -0.0000   -0.0000    0.0000    0.0000    0.0000    0.0000   -0.0000    0.0000
  114 O11    2s        -0.0000    0.0000   -0.0000   -0.0000    0.0000    0.0000    0.0000    0.0000   -0.0000    0.0000
  115 O11    2px        0.0000    0.0000   -0.0000   -0.0000    0.0000    0.0000    0.0000   -0.0000    0.0000    0.0000
  116 O11    2py       -0.0000    0.0000   -0.0000    0.0000   -0.0000    0.0000   -0.0000    0.0000   -0.0000    0.0000
  117 O11    2pz       -0.0000    0.0000   -0.0000    0.0000   -0.0000   -0.0000   -0.0000    0.0000   -0.0000    0.0000
  118 H12    1s         0.0000   -0.0000    0.0000   -0.0000   -0.0000   -0.0000    0.0000   -0.0000    0.0000   -0.0000
  119 H13    1s         0.0000    0.0000   -0.0000    0.0000   -0.0000   -0.0000   -0.0000   -0.0000   -0.0000    0.0000
  120 H14    1s        -0.0000    0.0000    0.0000   -0.0000   -0.0000   -0.0000    0.0000    0.0000    0.0000   -0.0000
  121 H15    1s        -0.0000    0.0000    0.0000   -0.0000    0.0000   -0.0000    0.0000   -0.0000   -0.0000    0.0000
  122 H16    1s        -0.0000   -0.0000   -0.0000    0.0000    0.0000   -0.0000   -0.0000    0.0000    0.0000   -0.0000
  123 H17    1s         0.0000   -0.0000    0.0000   -0.0000    0.0000   -0.0000    0.0000    0.0000   -0.0000    0.0000
 
 
      Orbital               21        22        23        24        25        26        27        28        29        30
      Energy          -28.7959  -28.7956  -28.7872  -28.7869  -28.7824  -20.2861  -20.2861  -20.2482  -20.2482  -20.2482
      Occ. No.          2.0000    2.0000    2.0000    2.0000    2.0000    2.0000    2.0000    2.0000    2.0000    2.0000
 
    1 C1     1s         0.0000   -0.0000    0.0000   -0.0000    0.0000   -0.0000    0.0000    0.0000   -0.0000   -0.0000
    2 C1     2s         0.0000   -0.0000    0.0000   -0.0000   -0.0000   -0.0000    0.0000    0.0000   -0.0000    0.0000
    3 C1     2px        0.0000    0.0000    0.0000    0.0000    0.0000    0.0000   -0.0000   -0.0000    0.0000    0.0000
    4 C1     2py       -0.0000    0.0000   -0.0000    0.0000    0.0000    0.0000   -0.0000    0.0000    0.0000    0.0000
    5 C1     2pz       -0.0000   -0.0000   -0.0000    0.0000    0.0000   -0.0000   -0.0000    0.0000   -0.0000   -0.0000
    6 S2     1s        -0.0000    0.0000   -0.0000    0.0000   -0.0000    0.0000   -0.0000   -0.0000    0.0000    0.0000
    7 S2     2s        -0.0000    0.0000   -0.0000    0.0000   -0.0000    0.0000   -0.0000   -0.0000    0.0000    0.0002
    8 S2     3s        -0.0000    0.0000    0.0000    0.0000   -0.0000    0.0000   -0.0000   -0.0000    0.0000    0.0009
    9 S2     2px        0.0000   -0.0000    0.0000   -0.0000    0.0000   -0.0000    0.0000    0.0000   -0.0000   -0.0001
   10 S2     3px        0.0000   -0.0000    0.0000   -0.0000    0.0000    0.0000    0.0000    0.0000   -0.0000   -0.0003
   11 S2     2py       -0.0000    0.0000   -0.0000    0.0000   -0.0000    0.0000    0.0000   -0.0000    0.0000    0.0001
   12 S2     3py       -0.0000    0.0000    0.0000   -0.0000   -0.0000    0.0000    0.0000   -0.0000    0.0000    0.0004
   13 S2     2pz       -0.0000    0.0000    0.0000    0.0000    0.0000   -0.0000    0.0000   -0.0001    0.0001   -0.0000
   14 S2     3pz        0.0000    0.0000    0.0000   -0.0000   -0.0000   -0.0000    0.0000   -0.0009    0.0005   -0.0000
   15 O3     1s        -0.0000    0.0000    0.0000    0.0000   -0.0000   -0.0000   -0.0000    0.6159   -0.3474   -0.5002
   16 O3     2s        -0.0000    0.0000    0.0000    0.0000   -0.0000    0.0000   -0.0000    0.0011   -0.0006   -0.0009
   17 O3     2px       -0.0000    0.0000   -0.0000   -0.0000    0.0000    0.0000    0.0000    0.0003   -0.0002   -0.0002
   18 O3     2py        0.0000   -0.0000   -0.0000   -0.0000   -0.0000   -0.0000    0.0000   -0.0004    0.0002    0.0003
   19 O3     2pz       -0.0000   -0.0000    0.0000    0.0000   -0.0000    0.0000   -0.0000   -0.0010    0.0006    0.0009
   20 O4     1s         0.0000    0.0000   -0.0000    0.0000   -0.0000   -0.0000   -0.0000   -0.6159    0.3474   -0.5002
   21 O4     2s         0.0000    0.0000   -0.0000    0.0000   -0.0000    0.0000   -0.0000   -0.0011    0.0006   -0.0009
   22 O4     2px        0.0000    0.0000    0.0000   -0.0000    0.0000    0.0000    0.0000   -0.0003    0.0002   -0.0002
   23 O4     2py       -0.0000   -0.0000    0.0000   -0.0000   -0.0000   -0.0000    0.0000    0.0004   -0.0002    0.0003
   24 O4     2pz       -0.0000    0.0000    0.0000   -0.0000    0.0000   -0.0000    0.0000   -0.0010    0.0006   -0.0009
   25 U5     1s         0.0000    0.0000    0.0000   -0.0000    0.0000   -0.0000    0.0000    0.0000    0.0000    0.0000
   26 U5     2s        -0.0000   -0.0000   -0.0000    0.0000    0.0000   -0.0000    0.0000    0.0000    0.0000    0.0000
   27 U5     3s         0.0000   -0.0000   -0.0000    0.0000   -0.0000   -0.0000    0.0000    0.0000    0.0000    0.0000
   28 U5     4s         0.0000   -0.0000   -0.0000   -0.0000   -0.0004   -0.0001    0.0000    0.0000    0.0000    0.0000
   29 U5     5s        -0.0000   -0.0000   -0.0000    0.0000    0.0001   -0.0002    0.0000    0.0000    0.0000    0.0000
   30 U5     6s         0.0000    0.0000   -0.0000   -0.0000    0.0000   -0.0008    0.0000    0.0000    0.0000    0.0000
   31 U5     7s         0.0000   -0.0000   -0.0000   -0.0000    0.0000   -0.0009    0.0000    0.0000    0.0000    0.0000
   32 U5     2px       -0.0000   -0.0000   -0.0000    0.0000    0.0000   -0.0000   -0.0000   -0.0000   -0.0000    0.0000
   33 U5     3px        0.0000    0.0000    0.0000   -0.0000    0.0000   -0.0000   -0.0000   -0.0000   -0.0000    0.0000
   34 U5     4px        0.0000    0.0000    0.0000   -0.0000    0.0000   -0.0000   -0.0000   -0.0000   -0.0000    0.0000
   35 U5     5px       -0.0000    0.0000   -0.0000    0.0000   -0.0000   -0.0000   -0.0001   -0.0000   -0.0000    0.0000
   36 U5     6px        0.0000    0.0000    0.0000   -0.0000   -0.0000   -0.0000   -0.0005   -0.0000   -0.0000    0.0002
   37 U5     7px       -0.0000    0.0000    0.0000    0.0000   -0.0000   -0.0000   -0.0004   -0.0000   -0.0000    0.0004
   38 U5     2py        0.0000    0.0000   -0.0000    0.0000   -0.0000   -0.0000   -0.0000    0.0000    0.0000   -0.0000
   39 U5     3py       -0.0000   -0.0000    0.0000    0.0000    0.0000   -0.0000   -0.0000    0.0000    0.0000   -0.0000
   40 U5     4py       -0.0000   -0.0000    0.0000    0.0000    0.0000   -0.0000   -0.0000    0.0000    0.0000   -0.0000
   41 U5     5py        0.0000   -0.0000   -0.0000   -0.0000   -0.0000   -0.0000   -0.0001    0.0000    0.0000   -0.0000
   42 U5     6py       -0.0000   -0.0000   -0.0000   -0.0000    0.0000   -0.0000   -0.0007    0.0000    0.0000   -0.0002
   43 U5     7py        0.0000   -0.0000   -0.0000   -0.0000   -0.0000   -0.0000   -0.0006    0.0000    0.0000   -0.0004
   44 U5     2pz        0.0000   -0.0000    0.0000    0.0000   -0.0000   -0.0000   -0.0000   -0.0000   -0.0000   -0.0000
   45 U5     3pz        0.0000    0.0000   -0.0000    0.0000    0.0000    0.0000    0.0000   -0.0000   -0.0000   -0.0000
   46 U5     4pz       -0.0000    0.0000   -0.0000   -0.0000    0.0000    0.0000    0.0000   -0.0000   -0.0000   -0.0000
   47 U5     5pz       -0.0000   -0.0000    0.0000    0.0000   -0.0000    0.0000   -0.0000   -0.0000   -0.0000   -0.0000
   48 U5     6pz        0.0000    0.0000   -0.0000    0.0000   -0.0000    0.0000   -0.0000   -0.0001   -0.0000   -0.0000
   49 U5     7pz       -0.0000    0.0000   -0.0000    0.0000   -0.0000   -0.0000   -0.0000   -0.0000   -0.0000   -0.0000
   50 U5     3d2-       0.0000    0.0000   -0.0000    0.0000   -0.0000   -0.0000    0.0000   -0.0000   -0.0000   -0.0000
   51 U5     4d2-       0.0000    0.4721   -0.0000    0.2965   -0.8302   -0.0000    0.0000   -0.0000   -0.0000   -0.0000
   52 U5     5d2-      -0.0000   -0.0001    0.0000   -0.0001    0.0001   -0.0001    0.0000   -0.0000   -0.0000   -0.0000
   53 U5     6d2-       0.0000    0.0000   -0.0000    0.0000   -0.0001   -0.0007    0.0000   -0.0000   -0.0000   -0.0000
   54 U5     3d1-      -0.0000    0.0000    0.0000    0.0000   -0.0000   -0.0000    0.0000    0.0000   -0.0000   -0.0000
   55 U5     4d1-      -0.5926    0.0000    0.8055    0.0000   -0.0000   -0.0000   -0.0000    0.0000   -0.0000   -0.0000
   56 U5     5d1-       0.0002   -0.0000   -0.0002   -0.0000    0.0000    0.0000   -0.0000    0.0000   -0.0000   -0.0000
   57 U5     6d1-      -0.0000    0.0000    0.0000    0.0000    0.0000   -0.0000   -0.0000    0.0000   -0.0001   -0.0000
   58 U5     3d0        0.0000    0.0000    0.0000    0.0000    0.0000    0.0000   -0.0000   -0.0000   -0.0000   -0.0000
   59 U5     4d0        0.0000    0.8691    0.0000    0.0013    0.4946    0.0000   -0.0000   -0.0000   -0.0000   -0.0000
   60 U5     5d0       -0.0000   -0.0002    0.0000   -0.0000   -0.0001    0.0001   -0.0000   -0.0000   -0.0000   -0.0000
   61 U5     6d0       -0.0000    0.0000    0.0000    0.0000    0.0000    0.0004   -0.0000   -0.0000   -0.0000   -0.0000
   62 U5     3d1+       0.0000   -0.0000    0.0000    0.0000   -0.0000   -0.0000   -0.0000   -0.0000    0.0000    0.0000
   63 U5     4d1+       0.8055   -0.0000    0.5926    0.0000    0.0000    0.0000    0.0000   -0.0000    0.0000    0.0000
   64 U5     5d1+      -0.0002    0.0000   -0.0001   -0.0000   -0.0000   -0.0000    0.0000   -0.0000    0.0000    0.0000
   65 U5     6d1+       0.0000    0.0000    0.0000    0.0000   -0.0000    0.0000    0.0000   -0.0000    0.0001    0.0000
   66 U5     3d2+      -0.0000   -0.0000   -0.0000    0.0000    0.0000    0.0000   -0.0000    0.0000    0.0000    0.0000
   67 U5     4d2+      -0.0000   -0.1477   -0.0000    0.9550    0.2571    0.0000   -0.0000    0.0000    0.0000    0.0000
   68 U5     5d2+       0.0000    0.0000    0.0000   -0.0002   -0.0000    0.0000   -0.0000    0.0000    0.0000    0.0000
   69 U5     6d2+       0.0000   -0.0000   -0.0000    0.0001    0.0000    0.0002   -0.0000    0.0000    0.0000    0.0000
   70 U5     4f3-      -0.0000    0.0000    0.0000    0.0000   -0.0000   -0.0000   -0.0000    0.0000    0.0000   -0.0000
   71 U5     5f3-       0.0000    0.0000    0.0000   -0.0000    0.0000   -0.0000   -0.0000    0.0000    0.0000   -0.0000
   72 U5     4f2-       0.0000   -0.0000    0.0000   -0.0000    0.0000    0.0000    0.0000    0.0000    0.0000    0.0000
   73 U5     5f2-      -0.0000   -0.0000    0.0000    0.0000   -0.0000    0.0000    0.0000    0.0000    0.0000    0.0000
   74 U5     4f1-       0.0000    0.0000   -0.0000    0.0000    0.0000    0.0000    0.0000    0.0000    0.0000   -0.0000
   75 U5     5f1-      -0.0000   -0.0000    0.0000   -0.0000    0.0000    0.0000    0.0001   -0.0000   -0.0000    0.0000
   76 U5     4f0       -0.0000   -0.0000   -0.0000   -0.0000   -0.0000    0.0000    0.0000    0.0000    0.0000    0.0000
   77 U5     5f0        0.0000    0.0000    0.0000    0.0000    0.0000    0.0000    0.0000    0.0000    0.0000    0.0000
   78 U5     4f1+      -0.0000    0.0000   -0.0000   -0.0000    0.0000    0.0000    0.0000    0.0000    0.0000    0.0000
   79 U5     5f1+      -0.0000   -0.0000    0.0000    0.0000    0.0000    0.0000    0.0000    0.0000    0.0000   -0.0000
   80 U5     4f2+       0.0000    0.0000   -0.0000   -0.0000   -0.0000    0.0000    0.0000   -0.0000   -0.0000   -0.0000
   81 U5     5f2+       0.0000    0.0000    0.0000    0.0000    0.0000    0.0000   -0.0000   -0.0000   -0.0000   -0.0000
   82 U5     4f3+       0.0000   -0.0000   -0.0000    0.0000    0.0000    0.0000    0.0000    0.0000    0.0000   -0.0000
   83 U5     5f3+      -0.0000    0.0000    0.0000    0.0000    0.0000    0.0000    0.0001    0.0000    0.0000   -0.0000
   84 O6     1s        -0.0000   -0.0000    0.0000    0.0000   -0.0000    0.7072   -0.7072   -0.0000    0.0000   -0.0000
   85 O6     2s        -0.0000    0.0000    0.0000    0.0000   -0.0000    0.0012   -0.0010    0.0000    0.0000   -0.0000
   86 O6     2px        0.0000   -0.0000   -0.0000   -0.0000   -0.0000    0.0006   -0.0005    0.0000    0.0000   -0.0001
   87 O6     2py        0.0000   -0.0000    0.0000    0.0000   -0.0000    0.0007   -0.0007   -0.0000   -0.0000    0.0000
   88 O6     2pz       -0.0000    0.0000   -0.0000   -0.0000    0.0000   -0.0000    0.0000   -0.0000   -0.0000   -0.0000
   89 O7     1s        -0.0000    0.0000    0.0000    0.0000   -0.0000   -0.0000    0.0000   -0.3474   -0.6159    0.4999
   90 O7     2s        -0.0000    0.0000    0.0000    0.0000   -0.0000    0.0000    0.0000   -0.0006   -0.0011    0.0009
   91 O7     2px        0.0000   -0.0000    0.0000    0.0000   -0.0000   -0.0000    0.0000    0.0002    0.0003   -0.0002
   92 O7     2py       -0.0000    0.0000    0.0000    0.0000    0.0000    0.0000    0.0000   -0.0002   -0.0004    0.0003
   93 O7     2pz        0.0000    0.0000   -0.0000   -0.0000    0.0000   -0.0000   -0.0000   -0.0006   -0.0010    0.0009
   94 S8     1s        -0.0000    0.0000    0.0000    0.0000   -0.0000    0.0000    0.0000    0.0000    0.0000   -0.0000
   95 S8     2s        -0.0000    0.0000    0.0000    0.0000   -0.0000    0.0000    0.0000    0.0000    0.0000   -0.0002
   96 S8     3s        -0.0000    0.0000    0.0000    0.0000   -0.0000    0.0000    0.0000    0.0000    0.0000   -0.0009
   97 S8     2px       -0.0000    0.0000   -0.0000    0.0000   -0.0000    0.0000    0.0000    0.0000    0.0000   -0.0001
   98 S8     3px       -0.0000    0.0000   -0.0000    0.0000   -0.0000   -0.0000    0.0000    0.0000    0.0000   -0.0003
   99 S8     2py        0.0000   -0.0000    0.0000   -0.0000    0.0000   -0.0000    0.0000   -0.0000   -0.0000    0.0001
  100 S8     3py        0.0000   -0.0000    0.0000    0.0000    0.0000   -0.0000    0.0000   -0.0000   -0.0000    0.0004
  101 S8     2pz        0.0000    0.0000   -0.0000   -0.0000   -0.0000    0.0000   -0.0000   -0.0001   -0.0001   -0.0000
  102 S8     3pz       -0.0000    0.0000   -0.0000    0.0000   -0.0000   -0.0000   -0.0000   -0.0005   -0.0009   -0.0000
  103 C9     1s         0.0000   -0.0000   -0.0000   -0.0000    0.0000   -0.0000   -0.0000   -0.0000   -0.0000    0.0000
  104 C9     2s         0.0000   -0.0000   -0.0000   -0.0000   -0.0000   -0.0000   -0.0000    0.0000    0.0000   -0.0000
  105 C9     2px        0.0000   -0.0000    0.0000   -0.0000   -0.0000   -0.0000   -0.0000   -0.0000   -0.0000    0.0000
  106 C9     2py        0.0000   -0.0000   -0.0000   -0.0000   -0.0000   -0.0000   -0.0000   -0.0000   -0.0000    0.0000
  107 C9     2pz        0.0000    0.0000    0.0000   -0.0000   -0.0000    0.0000    0.0000    0.0000    0.0000    0.0000
  108 O10    1s        -0.0000   -0.0000    0.0000    0.0000   -0.0000    0.7072    0.7072   -0.0000   -0.0000    0.0000
  109 O10    2s        -0.0000    0.0000    0.0000    0.0000   -0.0000    0.0012    0.0010   -0.0000   -0.0000    0.0000
  110 O10    2px       -0.0000    0.0000   -0.0000    0.0000    0.0000   -0.0006   -0.0005    0.0000    0.0000   -0.0001
  111 O10    2py        0.0000    0.0000    0.0000   -0.0000    0.0000   -0.0007   -0.0007   -0.0000   -0.0000    0.0000
  112 O10    2pz        0.0000   -0.0000    0.0000    0.0000    0.0000    0.0000    0.0000   -0.0000    0.0000   -0.0000
  113 O11    1s         0.0000    0.0000   -0.0000    0.0000   -0.0000   -0.0000    0.0000    0.3474    0.6159    0.4999
  114 O11    2s         0.0000    0.0000   -0.0000    0.0000   -0.0000    0.0000    0.0000    0.0006    0.0011    0.0009
  115 O11    2px       -0.0000   -0.0000   -0.0000    0.0000   -0.0000   -0.0000    0.0000   -0.0002   -0.0003   -0.0002
  116 O11    2py        0.0000    0.0000   -0.0000    0.0000    0.0000    0.0000    0.0000    0.0002    0.0004    0.0003
  117 O11    2pz        0.0000   -0.0000   -0.0000    0.0000   -0.0000    0.0000    0.0000   -0.0006   -0.0010   -0.0009
  118 H12    1s        -0.0000   -0.0000    0.0000   -0.0000   -0.0000    0.0000    0.0000    0.0000    0.0000   -0.0000
  119 H13    1s        -0.0000    0.0000    0.0000    0.0000   -0.0000    0.0001    0.0001   -0.0000   -0.0000    0.0000
  120 H14    1s         0.0000   -0.0000   -0.0000   -0.0000   -0.0000    0.0000    0.0000   -0.0000   -0.0000   -0.0000
  121 H15    1s         0.0000   -0.0000   -0.0000   -0.0000   -0.0000    0.0000   -0.0000    0.0000   -0.0000    0.0000
  122 H16    1s        -0.0000    0.0000    0.0000    0.0000   -0.0000    0.0001   -0.0001    0.0000    0.0000   -0.0000
  123 H17    1s        -0.0000   -0.0000    0.0000   -0.0000   -0.0000    0.0000   -0.0000   -0.0000    0.0000    0.0000
 
 
      Orbital               31        32        33        34        35        36        37        38        39        40
      Energy          -20.2482  -15.0078  -15.0075  -15.0024  -15.0017  -15.0014  -14.9937  -14.9934  -12.5627  -11.2112
      Occ. No.          2.0000    2.0000    2.0000    2.0000    2.0000    2.0000    2.0000    2.0000    2.0000    2.0000
 
    1 C1     1s         0.0000   -0.0000    0.0000   -0.0000    0.0000   -0.0000    0.0000    0.0000   -0.0000   -0.7096
    2 C1     2s         0.0000   -0.0000    0.0000   -0.0000    0.0000   -0.0000    0.0000    0.0000   -0.0000   -0.0010
    3 C1     2px       -0.0000    0.0000   -0.0000   -0.0000    0.0000    0.0000    0.0000   -0.0000   -0.0000   -0.0002
    4 C1     2py       -0.0000    0.0000    0.0000    0.0000    0.0000   -0.0000   -0.0000    0.0000   -0.0000   -0.0000
    5 C1     2pz       -0.0000    0.0000   -0.0000   -0.0000    0.0000    0.0000    0.0000   -0.0000   -0.0000    0.0000
    6 S2     1s        -0.0000   -0.0000    0.0000    0.0000   -0.0000   -0.0000    0.0000    0.0000   -0.0000    0.0000
    7 S2     2s        -0.0002    0.0000    0.0000    0.0000   -0.0000   -0.0000    0.0000    0.0000   -0.0000    0.0001
    8 S2     3s        -0.0009    0.0000    0.0000    0.0000   -0.0000    0.0000    0.0000    0.0000   -0.0001    0.0004
    9 S2     2px        0.0001   -0.0000    0.0000   -0.0000    0.0000    0.0000    0.0000    0.0000   -0.0000   -0.0000
   10 S2     3px        0.0004   -0.0000    0.0000   -0.0000    0.0000    0.0000    0.0000    0.0000   -0.0000   -0.0000
   11 S2     2py       -0.0001    0.0000   -0.0000   -0.0000    0.0000    0.0000   -0.0000   -0.0000   -0.0000   -0.0001
   12 S2     3py       -0.0004    0.0000   -0.0000   -0.0000    0.0000    0.0000   -0.0000   -0.0000   -0.0000   -0.0005
   13 S2     2pz        0.0000    0.0000   -0.0000   -0.0000    0.0000    0.0000   -0.0000   -0.0000   -0.0000    0.0000
   14 S2     3pz        0.0000    0.0000    0.0000   -0.0000    0.0000    0.0000   -0.0000   -0.0000    0.0000   -0.0000
   15 O3     1s         0.4999   -0.0000    0.0000    0.0000   -0.0000   -0.0000    0.0000   -0.0000    0.0000   -0.0000
   16 O3     2s         0.0009   -0.0000    0.0000    0.0000   -0.0000   -0.0000    0.0000   -0.0000    0.0000    0.0000
   17 O3     2px        0.0002    0.0000   -0.0000    0.0000    0.0000   -0.0000   -0.0000    0.0000   -0.0001    0.0000
   18 O3     2py       -0.0003   -0.0000    0.0000    0.0000    0.0000   -0.0000    0.0000   -0.0000    0.0000   -0.0001
   19 O3     2pz       -0.0009    0.0000    0.0000    0.0000    0.0000    0.0000   -0.0000    0.0000   -0.0001   -0.0000
   20 O4     1s         0.4999    0.0000    0.0000    0.0000    0.0000   -0.0000   -0.0000   -0.0000    0.0000   -0.0000
   21 O4     2s         0.0009    0.0000    0.0000    0.0000    0.0000   -0.0000   -0.0000   -0.0000    0.0000    0.0000
   22 O4     2px        0.0002   -0.0000   -0.0000    0.0000   -0.0000   -0.0000    0.0000    0.0000   -0.0001    0.0000
   23 O4     2py       -0.0003    0.0000    0.0000    0.0000   -0.0000   -0.0000   -0.0000   -0.0000    0.0000   -0.0001
   24 O4     2pz        0.0009    0.0000   -0.0000   -0.0000    0.0000   -0.0000   -0.0000   -0.0000    0.0001    0.0000
   25 U5     1s        -0.0000   -0.0000    0.0000    0.0000    0.0000   -0.0000   -0.0000   -0.0000   -0.0000    0.0000
   26 U5     2s        -0.0000    0.0000    0.0000    0.0000   -0.0000   -0.0000    0.0000    0.0000   -0.0000    0.0000
   27 U5     3s        -0.0000   -0.0000    0.0000    0.0000    0.0000    0.0000   -0.0000   -0.0000   -0.0000    0.0000
   28 U5     4s        -0.0000   -0.0000    0.0000    0.0000    0.0000   -0.0000    0.0000    0.0000    0.0001    0.0000
   29 U5     5s        -0.0000    0.0000   -0.0000    0.0000    0.0000   -0.0000   -0.0000   -0.0000    1.0000    0.0000
   30 U5     6s        -0.0001   -0.0000    0.0000    0.0000    0.0000   -0.0000    0.0000   -0.0000   -0.0016    0.0000
[...]
      4s       0.0000  0.0000  0.0000  0.0000  0.0000
      3d2+     0.0000  0.0000  0.0000  0.0000  0.0000
      3d1+     0.0000  0.0000  0.0000  0.0000  0.0000
      3d0      0.0000  0.0000  0.0000  0.0000  0.0000
      3d1-     0.0000  0.0000  0.0000  0.0000  0.0000
      3d2-     0.0000  0.0000  0.0000  0.0000  0.0000
      4px      0.0000  0.0000  0.0000  0.0000  0.0000
      4pz      0.0000  0.0000  0.0000  0.0000  0.0000
      4py      0.0000  0.0000  0.0000  0.0000  0.0000
      5s       0.0000  0.0000  0.0000  0.0000  0.0000
      4d2+     0.0000  0.0000  0.0000  0.0000  0.0000
      4d1+     0.0000  0.0000  0.0000  0.0000  0.0000
      4d0      0.0000  0.0000  0.0000  0.0000  0.0000
      4d1-     0.0000  0.0000  0.0000  0.0000  0.0000
      4d2-     0.0000  0.0000  0.0000  0.0000  0.0000
      5px      0.0000  0.0000  0.0000  0.0000  0.0000
      5pz      0.0000  0.0000  0.0000  0.0000  0.0000
      5py      0.0000  0.0000  0.0000  0.0000  0.0000
      6s       0.0000  0.0000  0.0000  0.0000  0.0000
      4f3+     0.0000  0.0000  0.0000  0.0000  0.0000
      4f2+     0.0000  0.0000  0.0000  0.0000  0.0000
      4f1+     0.0000  0.0000  0.0000  0.0000  0.0000
      4f0      0.0000  0.0000  0.0000  0.0000  0.0000
      4f1-     0.0000  0.0000  0.0000  0.0000  0.0000
      4f2-     0.0000  0.0000  0.0000  0.0000  0.0000
      4f3-     0.0000  0.0000  0.0000  0.0000  0.0000
      5d2+     0.0000  0.0000  0.0000  0.0000  0.0000
      5d1+     0.0000  0.0000  0.0000  0.0000  0.0000
      5d0      0.0000  0.0000  0.0000  0.0000  0.0000
      5d1-     0.0000  0.0000  0.0000  0.0000  0.0000
      5d2-     0.0000  0.0000  0.0000  0.0000  0.0000
      6px      0.0000  0.0000  0.0000  0.0000  0.0000
      6pz      0.0000  0.0000  0.0000  0.0000  0.0000
      6py      0.0000  0.0000  0.0000  0.0000  0.0000
      7s       0.0000  0.0000  0.0000  0.0000  0.0000
      5f3+     0.0000  0.0000  0.0000  0.0000  0.0000
      5f2+     0.0000  0.0000  0.0000  0.0000  0.0000
      5f1+     0.0000  0.0000  0.0000  0.0000  0.0000
      5f0      0.0000  0.0000  0.0000  0.0000  0.0000
      5f1-     0.0000  0.0000  0.0000  0.0000  0.0000
      5f2-     0.0000  0.0000  0.0000  0.0000  0.0000
      5f3-     0.0000  0.0000  0.0000  0.0000  0.0000
      6d2+     0.0000  0.0000  0.0000  0.0000  0.0000
      6d1+     0.0000  0.0000  0.0000  0.0000  0.0000
      6d0      0.0000  0.0000  0.0000  0.0000  0.0000
      6d1-     0.0000  0.0000  0.0000  0.0000  0.0000
      6d2-     0.0000  0.0000  0.0000  0.0000  0.0000
      7px      0.0000  0.0000  0.0000  0.0000  0.0000
      7pz      0.0000  0.0000  0.0000  0.0000  0.0000
      7py      0.0000  0.0000  0.0000  0.0000  0.0000
      Total    0.7975  0.8389  0.8389  0.7975  0.8389
 
      N-E      0.2025  0.1611  0.1611  0.2025  0.1611
 
      Total electronic charge=  191.000000
 
      Total            charge=   -1.000000
--
 
 

      Expectation values of various properties for root number:  4
      -----------------------------------------------------------
 
 
++    Molecular properties:
      ---------------------
 
      Charge (e):
                      =   -1.0000
      Dipole Moment (Debye):
      Origin of the operator (Ang)=    0.0000    0.0000    0.0000
                   X=  2.2169E-08               Y= -5.2485E-08               Z= -7.4661E-09           Total=  5.7463E-08
      Center of Charge (Ang)
                     X=   -0.00000000               Y=    0.00000001               Z=    0.00000000
      Quadrupole Moment (Debye*Ang):
      Origin of the operator (Ang)=    0.0000   -0.0000   -0.0000
                  XX= -1.3862E+02              XY= -4.5498E+00              XZ=  6.0131E-09              YY= -1.2343E+02
                  YZ= -1.0216E-08              ZZ= -1.3152E+02
      In traceless form (Debye*Ang)
                  XX= -1.1146E+01              XY= -6.8247E+00              XZ=  9.0196E-09              YY=  1.1643E+01
                  YZ= -1.5324E-08              ZZ= -4.9637E-01
--
 

      Mulliken spin population analysis for root number:  4
      ---------------------------------------------------
 
 
++    Molecular charges:
      ------------------
 
      Mulliken spin population per centre and basis function type
      ---------------------------------------------------
 
                C1      S2      O3      O4      U5      O6      O7      S8      C9      O10     O11     H12   
      1s       0.0000  0.0000 -0.0000 -0.0000  0.0000  0.0000 -0.0000  0.0000  0.0000 -0.0000 -0.0000  0.0000
      2s       0.0000 -0.0000  0.0003  0.0003 -0.0000 -0.0000  0.0003 -0.0000 -0.0000 -0.0000  0.0003  0.0000
      2px      0.0000 -0.0000  0.0011  0.0011 -0.0000  0.0000  0.0011 -0.0000 -0.0000  0.0000  0.0011  0.0000
      2pz      0.0000 -0.0000  0.0015  0.0015 -0.0000  0.0009  0.0015 -0.0000  0.0000  0.0009  0.0015  0.0000
      2py      0.0000 -0.0000  0.0007  0.0007  0.0000  0.0000  0.0007 -0.0000  0.0000  0.0000  0.0007  0.0000
      3s       0.0000  0.0000  0.0000  0.0000 -0.0000  0.0000  0.0000  0.0000  0.0000  0.0000  0.0000  0.0000
      3px      0.0000  0.0000  0.0000  0.0000  0.0000  0.0000  0.0000  0.0000  0.0000  0.0000  0.0000  0.0000
      3pz      0.0000  0.0002  0.0000  0.0000 -0.0000  0.0000  0.0000  0.0002  0.0000  0.0000  0.0000  0.0000
      3py      0.0000  0.0000  0.0000  0.0000  0.0000  0.0000  0.0000  0.0000  0.0000  0.0000  0.0000  0.0000
      4s       0.0000  0.0000  0.0000  0.0000  0.0000  0.0000  0.0000  0.0000  0.0000  0.0000  0.0000  0.0000
      3d2+     0.0000  0.0000  0.0000  0.0000  0.0000  0.0000  0.0000  0.0000  0.0000  0.0000  0.0000  0.0000
      3d1+     0.0000  0.0000  0.0000  0.0000  0.0000  0.0000  0.0000  0.0000  0.0000  0.0000  0.0000  0.0000
      3d0      0.0000  0.0000  0.0000  0.0000  0.0000  0.0000  0.0000  0.0000  0.0000  0.0000  0.0000  0.0000
      3d1-     0.0000  0.0000  0.0000  0.0000  0.0000  0.0000  0.0000  0.0000  0.0000  0.0000  0.0000  0.0000
      3d2-     0.0000  0.0000  0.0000  0.0000  0.0000  0.0000  0.0000  0.0000  0.0000  0.0000  0.0000  0.0000
      4px      0.0000  0.0000  0.0000  0.0000  0.0000  0.0000  0.0000  0.0000  0.0000  0.0000  0.0000  0.0000
      4pz      0.0000  0.0000  0.0000  0.0000 -0.0000  0.0000  0.0000  0.0000  0.0000  0.0000  0.0000  0.0000
      4py      0.0000  0.0000  0.0000  0.0000 -0.0000  0.0000  0.0000  0.0000  0.0000  0.0000  0.0000  0.0000
      5s       0.0000  0.0000  0.0000  0.0000 -0.0000  0.0000  0.0000  0.0000  0.0000  0.0000  0.0000  0.0000
      4d2+     0.0000  0.0000  0.0000  0.0000  0.0000  0.0000  0.0000  0.0000  0.0000  0.0000  0.0000  0.0000
      4d1+     0.0000  0.0000  0.0000  0.0000  0.0000  0.0000  0.0000  0.0000  0.0000  0.0000  0.0000  0.0000
      4d0      0.0000  0.0000  0.0000  0.0000  0.0000  0.0000  0.0000  0.0000  0.0000  0.0000  0.0000  0.0000
      4d1-     0.0000  0.0000  0.0000  0.0000  0.0000  0.0000  0.0000  0.0000  0.0000  0.0000  0.0000  0.0000
      4d2-     0.0000  0.0000  0.0000  0.0000 -0.0000  0.0000  0.0000  0.0000  0.0000  0.0000  0.0000  0.0000
      5px      0.0000  0.0000  0.0000  0.0000  0.0000  0.0000  0.0000  0.0000  0.0000  0.0000  0.0000  0.0000
      5pz      0.0000  0.0000  0.0000  0.0000 -0.0000  0.0000  0.0000  0.0000  0.0000  0.0000  0.0000  0.0000
      5py      0.0000  0.0000  0.0000  0.0000 -0.0000  0.0000  0.0000  0.0000  0.0000  0.0000  0.0000  0.0000
      6s       0.0000  0.0000  0.0000  0.0000 -0.0000  0.0000  0.0000  0.0000  0.0000  0.0000  0.0000  0.0000
      4f3+     0.0000  0.0000  0.0000  0.0000 -0.0000  0.0000  0.0000  0.0000  0.0000  0.0000  0.0000  0.0000
      4f2+     0.0000  0.0000  0.0000  0.0000  0.0000  0.0000  0.0000  0.0000  0.0000  0.0000  0.0000  0.0000
      4f1+     0.0000  0.0000  0.0000  0.0000  0.0000  0.0000  0.0000  0.0000  0.0000  0.0000  0.0000  0.0000
      4f0      0.0000  0.0000  0.0000  0.0000  0.0000  0.0000  0.0000  0.0000  0.0000  0.0000  0.0000  0.0000
      4f1-     0.0000  0.0000  0.0000  0.0000  0.0000  0.0000  0.0000  0.0000  0.0000  0.0000  0.0000  0.0000
      4f2-     0.0000  0.0000  0.0000  0.0000  0.0000  0.0000  0.0000  0.0000  0.0000  0.0000  0.0000  0.0000
      4f3-     0.0000  0.0000  0.0000  0.0000  0.0000  0.0000  0.0000  0.0000  0.0000  0.0000  0.0000  0.0000
      5d2+     0.0000  0.0000  0.0000  0.0000  0.0000  0.0000  0.0000  0.0000  0.0000  0.0000  0.0000  0.0000
      5d1+     0.0000  0.0000  0.0000  0.0000  0.0000  0.0000  0.0000  0.0000  0.0000  0.0000  0.0000  0.0000
      5d0      0.0000  0.0000  0.0000  0.0000  0.0000  0.0000  0.0000  0.0000  0.0000  0.0000  0.0000  0.0000
      5d1-     0.0000  0.0000  0.0000  0.0000  0.0000  0.0000  0.0000  0.0000  0.0000  0.0000  0.0000  0.0000
      5d2-     0.0000  0.0000  0.0000  0.0000  0.0000  0.0000  0.0000  0.0000  0.0000  0.0000  0.0000  0.0000
      6px      0.0000  0.0000  0.0000  0.0000  0.0000  0.0000  0.0000  0.0000  0.0000  0.0000  0.0000  0.0000
      6pz      0.0000  0.0000  0.0000  0.0000  0.0003  0.0000  0.0000  0.0000  0.0000  0.0000  0.0000  0.0000
      6py      0.0000  0.0000  0.0000  0.0000  0.0000  0.0000  0.0000  0.0000  0.0000  0.0000  0.0000  0.0000
      7s       0.0000  0.0000  0.0000  0.0000  0.0000  0.0000  0.0000  0.0000  0.0000  0.0000  0.0000  0.0000
      5f3+     0.0000  0.0000  0.0000  0.0000  0.0000  0.0000  0.0000  0.0000  0.0000  0.0000  0.0000  0.0000
      5f2+     0.0000  0.0000  0.0000  0.0000  0.0195  0.0000  0.0000  0.0000  0.0000  0.0000  0.0000  0.0000
      5f1+     0.0000  0.0000  0.0000  0.0000 -0.0000  0.0000  0.0000  0.0000  0.0000  0.0000  0.0000  0.0000
      5f0      0.0000  0.0000  0.0000  0.0000  0.7345  0.0000  0.0000  0.0000  0.0000  0.0000  0.0000  0.0000
      5f1-     0.0000  0.0000  0.0000  0.0000  0.0000  0.0000  0.0000  0.0000  0.0000  0.0000  0.0000  0.0000
      5f2-     0.0000  0.0000  0.0000  0.0000  0.2212  0.0000  0.0000  0.0000  0.0000  0.0000  0.0000  0.0000
      5f3-     0.0000  0.0000  0.0000  0.0000  0.0000  0.0000  0.0000  0.0000  0.0000  0.0000  0.0000  0.0000
      6d2+     0.0000  0.0000  0.0000  0.0000  0.0000  0.0000  0.0000  0.0000  0.0000  0.0000  0.0000  0.0000
      6d1+     0.0000  0.0000  0.0000  0.0000  0.0000  0.0000  0.0000  0.0000  0.0000  0.0000  0.0000  0.0000
      6d0      0.0000  0.0000  0.0000  0.0000  0.0000  0.0000  0.0000  0.0000  0.0000  0.0000  0.0000  0.0000
      6d1-     0.0000  0.0000  0.0000  0.0000  0.0000  0.0000  0.0000  0.0000  0.0000  0.0000  0.0000  0.0000
      6d2-     0.0000  0.0000  0.0000  0.0000 -0.0000  0.0000  0.0000  0.0000  0.0000  0.0000  0.0000  0.0000
      7px      0.0000  0.0000  0.0000  0.0000 -0.0000  0.0000  0.0000  0.0000  0.0000  0.0000  0.0000  0.0000
      7pz      0.0000  0.0000  0.0000  0.0000  0.0079  0.0000  0.0000  0.0000  0.0000  0.0000  0.0000  0.0000
      7py      0.0000  0.0000  0.0000  0.0000  0.0000  0.0000  0.0000  0.0000  0.0000  0.0000  0.0000  0.0000
      Total    0.0000  0.0002  0.0036  0.0036  0.9833  0.0009  0.0036  0.0002  0.0000  0.0009  0.0036  0.0000
 
                H13     H14     H15     H16     H17   
      1s      -0.0000  0.0000  0.0000 -0.0000  0.0000
      2s       0.0000  0.0000  0.0000  0.0000  0.0000
      2px      0.0000  0.0000  0.0000  0.0000  0.0000
      2pz      0.0000  0.0000  0.0000  0.0000  0.0000
      2py      0.0000  0.0000  0.0000  0.0000  0.0000
      3s       0.0000  0.0000  0.0000  0.0000  0.0000
      3px      0.0000  0.0000  0.0000  0.0000  0.0000
      3pz      0.0000  0.0000  0.0000  0.0000  0.0000
      3py      0.0000  0.0000  0.0000  0.0000  0.0000
      4s       0.0000  0.0000  0.0000  0.0000  0.0000
      3d2+     0.0000  0.0000  0.0000  0.0000  0.0000
      3d1+     0.0000  0.0000  0.0000  0.0000  0.0000
      3d0      0.0000  0.0000  0.0000  0.0000  0.0000
      3d1-     0.0000  0.0000  0.0000  0.0000  0.0000
      3d2-     0.0000  0.0000  0.0000  0.0000  0.0000
      4px      0.0000  0.0000  0.0000  0.0000  0.0000
      4pz      0.0000  0.0000  0.0000  0.0000  0.0000
      4py      0.0000  0.0000  0.0000  0.0000  0.0000
      5s       0.0000  0.0000  0.0000  0.0000  0.0000
      4d2+     0.0000  0.0000  0.0000  0.0000  0.0000
      4d1+     0.0000  0.0000  0.0000  0.0000  0.0000
      4d0      0.0000  0.0000  0.0000  0.0000  0.0000
      4d1-     0.0000  0.0000  0.0000  0.0000  0.0000
      4d2-     0.0000  0.0000  0.0000  0.0000  0.0000
      5px      0.0000  0.0000  0.0000  0.0000  0.0000
      5pz      0.0000  0.0000  0.0000  0.0000  0.0000
      5py      0.0000  0.0000  0.0000  0.0000  0.0000
      6s       0.0000  0.0000  0.0000  0.0000  0.0000
      4f3+     0.0000  0.0000  0.0000  0.0000  0.0000
      4f2+     0.0000  0.0000  0.0000  0.0000  0.0000
      4f1+     0.0000  0.0000  0.0000  0.0000  0.0000
      4f0      0.0000  0.0000  0.0000  0.0000  0.0000
      4f1-     0.0000  0.0000  0.0000  0.0000  0.0000
      4f2-     0.0000  0.0000  0.0000  0.0000  0.0000
      4f3-     0.0000  0.0000  0.0000  0.0000  0.0000
      5d2+     0.0000  0.0000  0.0000  0.0000  0.0000
      5d1+     0.0000  0.0000  0.0000  0.0000  0.0000
      5d0      0.0000  0.0000  0.0000  0.0000  0.0000
      5d1-     0.0000  0.0000  0.0000  0.0000  0.0000
      5d2-     0.0000  0.0000  0.0000  0.0000  0.0000
      6px      0.0000  0.0000  0.0000  0.0000  0.0000
      6pz      0.0000  0.0000  0.0000  0.0000  0.0000
      6py      0.0000  0.0000  0.0000  0.0000  0.0000
      7s       0.0000  0.0000  0.0000  0.0000  0.0000
      5f3+     0.0000  0.0000  0.0000  0.0000  0.0000
      5f2+     0.0000  0.0000  0.0000  0.0000  0.0000
      5f1+     0.0000  0.0000  0.0000  0.0000  0.0000
      5f0      0.0000  0.0000  0.0000  0.0000  0.0000
      5f1-     0.0000  0.0000  0.0000  0.0000  0.0000
      5f2-     0.0000  0.0000  0.0000  0.0000  0.0000
      5f3-     0.0000  0.0000  0.0000  0.0000  0.0000
      6d2+     0.0000  0.0000  0.0000  0.0000  0.0000
      6d1+     0.0000  0.0000  0.0000  0.0000  0.0000
      6d0      0.0000  0.0000  0.0000  0.0000  0.0000
      6d1-     0.0000  0.0000  0.0000  0.0000  0.0000
      6d2-     0.0000  0.0000  0.0000  0.0000  0.0000
      7px      0.0000  0.0000  0.0000  0.0000  0.0000
      7pz      0.0000  0.0000  0.0000  0.0000  0.0000
      7py      0.0000  0.0000  0.0000  0.0000  0.0000
      Total   -0.0000  0.0000  0.0000 -0.0000  0.0000
 
      Total electronic spin=    1.000000
--
 
 

      LoProp population analysis for root number:  4
      -----------------------------------------------
 
 
++    LoProp analysis:
      ----------------
 
 
 
  Input file to MOLDEN was generated!
 
 
++    Static properties:
      ------------------
 
 
      LoProp Charges per center
 

                   C1       S2       O3       O4       U5       O6       O7       S8       C9       O10   
      Nuclear      6.0000  16.0000   8.0000   8.0000  92.0000   8.0000   8.0000  16.0000   6.0000   8.0000
      Electronic  -6.4485 -15.0121  -8.8211  -8.8211 -89.5179  -9.0045  -8.8211 -15.0121  -6.4485  -9.0045
 
      Total       -0.4485   0.9879  -0.8211  -0.8211   2.4821  -1.0045  -0.8211   0.9879  -0.4485  -1.0045
 

                   O11      H12      H13      H14      H15      H16      H17   
      Nuclear      8.0000   1.0000   1.0000   1.0000   1.0000   1.0000   1.0000
      Electronic  -8.8211  -0.8906  -0.8525  -0.8906  -0.8906  -0.8525  -0.8906
 
      Total       -0.8211   0.1094   0.1475   0.1094   0.1094   0.1475   0.1094
--
 
 
      Natural Bond Order analysis for root number:  4
 
++    Natural Bond Order analysis
      ---------------------------
      Based on LoProp computed density
      -------------------------------------------------------------------------------------
      Atom A       Atom B       Bond Order | Atom A       Atom B       Bond Order
        C1           S2             1.000  |   C9           H12            0.999
        C1           H15            0.999  |   C9           H13            1.000
        C1           H16            1.000  |   C9           H14            0.999
        C1           H17            0.999  |   S2           O3             0.981
        U5           O6             4.000  |   S2           O4             0.981
        U5           O10            4.000  |   O7           S8             0.981
        S8           C9             1.000  |   S8           O11            0.981
      -------------------------------------------------------------------------------------
      NBO located    120.000 core electrons.
      NBO located     32.698 lone pair electrons.
      NBO located     39.841 electrons involved in   14 bonds.
      NBO analysis, and just that ONLY, did not converge to a
      proper answer, sorry. Calculation will continue as normal.
--
 
--
 
 
  Input file to MOLDEN was generated!
 
 
  Input file to MOLDEN was generated!
 
 
  Input file to MOLDEN was generated!
 
 
  Input file to MOLDEN was generated!
 
 
  Input file to MOLDEN was generated!
 
      Average orbitals are written to the RASORB file
      Natural orbitals for root   1 are written to the RASORB.1 file
      Natural orbitals for root   2 are written to the RASORB.2 file
      Natural orbitals for root   3 are written to the RASORB.3 file
      Natural orbitals for root   4 are written to the RASORB.4 file
      Spin density orbitals for root   1 are written to the SPDORB.1 file
      Spin density orbitals for root   2 are written to the SPDORB.2 file
      Spin density orbitals for root   3 are written to the SPDORB.3 file
      Spin density orbitals for root   4 are written to the SPDORB.4 file
 
 ###############################################################################
 ###############################################################################
 ###                                                                         ###
 ###                                                                         ###
 ###    RunFile label BirthCertificate                                       ###
 ###    was used       50 times                                              ###
 ###                                                                         ###
 ###                                                                         ###
 ###############################################################################
 ###############################################################################
--- Stop Module: rasscf at Wed Dec  4 10:49:40 2019 /rc=_RC_ALL_IS_WELL_ ---
*** files: UO2_CH3SO2_CH3SO2-m1-doublet.casscf.MB.LprOrb UO2_CH3SO2_CH3SO2-m1-doublet.casscf.MB.rasscf.molden UO2_CH3SO2_CH3SO2-m1-doublet.casscf.MB.rasscf.molden.2
           UO2_CH3SO2_CH3SO2-m1-doublet.casscf.MB.rasscf.molden.1 UO2_CH3SO2_CH3SO2-m1-doublet.casscf.MB.rasscf.molden.3 UO2_CH3SO2_CH3SO2-m1-doublet.casscf.MB.rasscf.molden.4
           UO2_CH3SO2_CH3SO2-m1-doublet.casscf.MB.LoProp.molden UO2_CH3SO2_CH3SO2-m1-doublet.casscf.MB.RasOrb UO2_CH3SO2_CH3SO2-m1-doublet.casscf.MB.RasOrb.1
           UO2_CH3SO2_CH3SO2-m1-doublet.casscf.MB.RasOrb.2 UO2_CH3SO2_CH3SO2-m1-doublet.casscf.MB.RasOrb.3 UO2_CH3SO2_CH3SO2-m1-doublet.casscf.MB.RasOrb.4
           UO2_CH3SO2_CH3SO2-m1-doublet.casscf.MB.rasscf.h5 UO2_CH3SO2_CH3SO2-m1-doublet.casscf.MB.SpdOrb.4 UO2_CH3SO2_CH3SO2-m1-doublet.casscf.MB.SpdOrb.1
           UO2_CH3SO2_CH3SO2-m1-doublet.casscf.MB.SpdOrb.3 UO2_CH3SO2_CH3SO2-m1-doublet.casscf.MB.SpdOrb.2 xmldump
    saved to directory /home/vallet/John-sulfinate/U-complexes/UO2_CH3SO2_CH3SO2-m1/optg-freq-pbe0/SO-XMS
--- Module rasscf spent 1 minute 6 seconds ---

>>> COPY UO2_CH3SO2_CH3SO2-m1-doublet.casscf.MB.RasOrb /home/vallet/John-sulfinate/U-complexes/UO2_CH3SO2_CH3SO2-m1/optg-freq-pbe0/SO-XMS/UO2_CH3SO2_CH3SO2-m1-doublet.casscf.MB.RasOrb_doublets

>>> COPY UO2_CH3SO2_CH3SO2-m1-doublet.casscf.MB.rasscf.molden /home/vallet/John-sulfinate/U-complexes/UO2_CH3SO2_CH3SO2-m1/optg-freq-pbe0/SO-XMS/UO2_CH3SO2_CH3SO2-m1-doublet.casscf.MB.rasscf_doublets.molden

    Timing: Wall=153.06 User=926.26 System=27.03
