
   OpenMP run-time library returned nthreads =  4
 operating system is UNIX !

 force (u-0-6.local) : TURBOMOLE V7.3 ( 22142 ) 4 Jul 2018 at 18:12:42
 Copyright (C) 2018 TURBOMOLE GmbH, Karlsruhe


    2019-01-28 17:53:43.105 



                             T U R B O M O L E   

                          a o f o r c e - program

                        using direct algorithms for

                       SCF level calculations of
                         * harmonic force constants
                         * hyperpolarizabilities
                         * IR and RAMAN intensities
                         * VCD intensities

                       DFT level calculations of
                         * harmonic force constants
                         * IR intensities
                                                   
       Stephan Boecker, Peter Deglmann, Filipp Furche and Marco Haeser
                          Quantum Chemistry Group
                          Universitaet  Karlsruhe
                                   Germany

 
 

          OpenMP Shared-Memory Parallelization:  4 CPUs.

            By: Erik P. Almaraz and Filipp Furche
            Copyright 2009-2011 by UCI and TURBOMOLE GmbH.

 
 
     References :
 
       RI-J implementation:
         Peter Deglmann, Klaus May, Filipp Furche, Reinhart Ahlrichs
                 Chem. Phys. Lett. 384:103 (2004)
 
       Efficiency, technical details:
         Peter Deglmann, Filipp Furche, Reinhart Ahlrichs
                 Chem. Phys. Lett. 362:511 (2002)
 
       Search of lowest eigenvalues by iterative diagonalization:
         Peter Deglmann, Filipp Furche
                 J. Chem. Phys. 117:9535 (2002)
 
       Vibrational circular dichroism implementation:
        Kevin Reiter, Michael Kuehn, Florian Weigend
                 J. Chem. Phys. 146:054102 (2017)  
 
 


              +--------------------------------------------------+
              | Atomic coordinate, charge and isotop information |
              +--------------------------------------------------+

                    atomic coordinates            atom    charge  isotop
          0.10101775    1.52043484    0.18892603    c      6.000     0
         -0.44079048    0.75045527    2.03660047    h      1.000     0
          2.16621532    1.77308792    0.17529379    h      1.000     0
         -0.81129376    3.36809906   -0.05474575    h      1.000     0
         -0.69382930   -0.05667656   -1.78109100    o      8.000     0
          0.46886076   -3.11123701   -1.47104455    s     16.000     0
         -0.79018029   -4.24416352    0.90606101    o      8.000     0
 
       center of nuclear mass  :   -0.08312432   -1.82519217   -0.71713656
       center of nuclear charge:   -0.06951383   -1.68712833   -0.66454263

              +--------------------------------------------------+
              |               basis set information              |
              +--------------------------------------------------+

              we will work with the 1s 3p 5d 7f 9g ... basis set
              ...i.e. with spherical basis functions...

   type   atoms  prim   cont   basis
   ---------------------------------------------------------------------------
    c        1     66     46   aug-cc-pVTZ   [5s4p3d2f|19s6p3d2f]
    h        3     25     23   aug-cc-pVTZ   [4s3p2d|6s3p2d]
    o        2     66     46   aug-cc-pVTZ   [5s4p3d2f|19s6p3d2f]
    s        1    122     50   aug-cc-pVTZ   [6s5p3d2f|42s17p3d2f]
   ---------------------------------------------------------------------------
   total:    7    395    257
   ---------------------------------------------------------------------------

   total number of primitive shells          :  135
   total number of contracted shells         :   85
   total number of cartesian basis functions :  299
   total number of SCF-basis functions       :  257

 
             FOUND RI-J FLAG !
 

 NOTE: THIS IS A PRELIMINARY IMPLEMENTATION. THE RI APPROXIMATION IS
       PRESENTLY USED FOR CPKS CONTRIBUTIONS TO THE HESSIAN ONLY! SEE
       MANUAL FOR FURTHER DETAILS.

  
 AUXILIARY BASIS SET information:

              we will work with the 1s 3p 5d 7f 9g ... basis set
              ...i.e. with spherical basis functions...

   type   atoms  prim   cont   basis
   ---------------------------------------------------------------------------
    c        1     70     49   aug-cc-pVTZ   [6s4p3d1f1g|12s5p4d2f1g]
    h        3     16     11   aug-cc-pVTZ   [3s1p1d|5s2p1d]
    o        2     70     49   aug-cc-pVTZ   [6s4p3d1f1g|12s5p4d2f1g]
    s        1     77     51   aug-cc-pVTZ   [8s4p3d1f1g|14s5p5d2f1g]
   ---------------------------------------------------------------------------
   total:    7    335    231
   ---------------------------------------------------------------------------

   total number of primitive shells          :   83
   total number of contracted shells         :   77
   total number of cartesian basis functions :  282
   total number of SCF-basis functions       :  231


 symmetry group of the molecule :   c1 

 the group has the following generators :
   c1(z)

    1 symmetry operations found

 there are 1 real representations :   a   

 maximum number of shells which are related by symmetry :  1


 determining totally symmetric integral contributions 
    - equivalent to irreducible tensor elements - 
 which can be formed within each triple of representations :

             representation triple      contributions

              a     a     a               1

    mo occupation :
   irrep   mo's   occupied
    a      257       21
 
 number of basis functions   :                    257
 number of occupied orbitals :                     21
 
  MOs are in ASCII format !


 reading orbital data $scfmo  from file mos
 orbital characterization : scfconv=6
 time elapsed for calculating density matrices :   0.004 sec

 number of non-frozen orbitals          :   257
 number of non-frozen occupied orbitals :    21
 Blocking parameters 
 shells:
    index      start shell   last shell  start bf    last bf    #bf 
       1             1          85             1        299    299
          size of I/O Block in Byte:               15019368
  
           ----------------------
               RI - INFORMATION
           ----------------------

 biggest AO integral is expected to be     9.679779311

 Threshold for integral neglect (rithr2):   0.84E-10
 Threshold for integral neglect (rithr1):   0.84E-10

 Contributions to RI integral batches: 
  neglected integral batches:                    36
  direct contribution:                            0
  memory contribution:                  3619
 Core memory available (ricore):               500 MiB
 Core memory needed for (P|Q) and Cholesky:      1 MiB
 Core memory used for integrals:                96 MiB
 
 ****************************************
 Memory allocated for RIDFT: 96 MiB
 ****************************************
 
  
           ------------------
           density functional
           ------------------
 PBE0 hybrid functional
 exchange:    3/4 (LDA+PBE) + 1/4 HF
 correlation: LDA (PW) + PBE

 iterations will be done with small grid
  
 spherical integration : Lebedev's spherical grid
 spherical gridsize    :                     4
    i.e. gridpoints    :                   434
 value for diffuse not defined
 radial integration    : Chebyshev 2nd kind (scaling 3)
 radial gridsize       :                     6
 integration cells     :                     7
 partition function    : becke
 partition sharpness   :                     3
  
 
 Derivatives of quadrature weights will be included
 
          Overall gridpoints after grid construction =         73200
 Ordering of quadrature gridpoints disabled.
 
 
 
 
 OCCUPIED-OCCUPIED TENSOR SPACES :

          IRREP   tensor space dimension   number of roots

           a               441                  15
 
 OCCUPIED-VIRTUAL TENSOR SPACES :

          IRREP   tensor space dimension   number of roots

           a              4956                  15
 
 
 
 
 CONSTRUCTING integral bounds

 setting up bound for integral derivative estimation

 increment for numerical differentiation : 0.00050000
 
 machine precision:   2.220446049250313E-016

 integral neglect threshold       :  0.10E-09
 integral storage threshold THIZE :  0.10E-04
 integral storage threshold THIME :         5

 
 
 
 PREPARING NUMERICAL INTEGRATION
 
 Remaining core memory for DFT =                  1957 MB
 
 Memory needed per atom    =                  1051 KiB
 
     i. e.                     7 atoms per loop

 Calculating ground state density on molecular grid

 Integral of ground state density: N =   41.99983915773846    


 
 
 CONSTRUCTING first deriv. of <mu|x,y,z|nu> -> Dip. deriv.
  dipole integral derivatives will be neglected if
  expon. factor <0.167224E-10
      ...terminated. cpu:       0.08       wall:       0.02
 
 
 
 
 CONSTRUCTING first deriv. of  <mu|nu>
                               <mu|h|nu>    -> RHS
              second deriv. of <mu|nu>      -> Hessian
                               <mu|h|nu>    -> Hessian
                               nucl. rep.   -> Hessian
     integrals are neglected if expon. factor <  1.000000000000000E-012
      ...terminated. cpu:       0.92       wall:       0.30
 
 
 
 
 CONSTRUCTING second deriv. of 2e energy    -> Hessian
   treating Coulomb (and exchange) contribution
     integrals will be neglected if total contribution <  1.672240802675585E-008
      ...terminated. cpu:     235.71       wall:      61.31
   treating exchange-correlation contribution
      ...terminated. cpu:      92.12       wall:      29.57
 
 
 
 
 CONSTRUCTING S(i,j)xi
      ...terminated. cpu:       0.02       wall:       0.01
 
 
 
 
 CONSTRUCTING <i|x,y,z|j>*S(i,j)xi          -> Dip. deriv.
      ...terminated. cpu:       0.12       wall:       0.03
 
 
 
 
 CONSTRUCTING epsilon(i)*S(i,j)xi*S(i,j)chi -> Hessian
      ...terminated. cpu:       0.00       wall:       0.00
 
 
 
 
 CONSTRUCTING G(a,i)[S(k,l)xi]              -> RHS
              G(i,j)[S(k,l)xi]*S(i,j)chi    -> Hessian
 
         Maximum core memory set to                   2000 MB
         This corresponds to                  2877 vectors in CAO basis
      ...terminated. cpu:     154.95       wall:      38.79
 
 
 
 
 CONSTRUCTING G(mu,nu)[D(kap,lam)]xi
 
          Maximum core memory set to                   2000 MB
          Atoms treated simultaneously :                     7
 max of dfo   60.8595557671794     
      ...terminated. cpu:     235.92       wall:      59.44
 
 
 
 
 CONSTRUCTING F(a,i)xi                      -> RHS
              F(i,j)xi*S(i,j)chi            -> Hessian
 
        Maximum core memory set to                  2000 MB
        This corresponds to                  5263 vectors in CAO basis
      ...terminated. cpu:       0.17       wall:       0.04
 
 
 
 
 CONSTRUCTING epsilon(i)*S(a,i)xi           -> RHS
      ...terminated. cpu:       0.14       wall:       0.04
 
 
 
 
 SOLVING CPHF equations
 
 Residuum convergence criterium   :  1.000000000000000E-005
 
 Maximum number of Davidson iterations set to                    25
  Switching to small grid
        preparing numerical integration ....
          Overall gridpoints after grid construction =         20796

 Calculating ground state density on molecular grid

 Integral of ground state density: N =   41.99916799002238    




                       Nonorthonormal Krylov Space Iteration


 total number of roots to be determined: 15


 maximum core memory set to  2000 MB,
 corresponding to     2868 vectors in CAO basis


 maximum number of simultaneously treated vectors (including degeneracy):       15


 Iteration IRREP Converged      Max. Euclidean
                 roots          residual norm

    1       a        0        7.083891658788917D-02
 
    2       a        0        1.146321007559594D-02
 
    3       a        0        1.989090657016908D-03
 
    4       a        0        2.723892430220711D-04
 
    5       a        5        2.942043111824861D-05
 
    6       a       15        9.740289700717794D-06
 

 converged!

  Switching to fine grid
        preparing numerical integration ....
          Overall gridpoints after grid construction =         73200

 Calculating ground state density on molecular grid

 Integral of ground state density: N =   41.99983915773822    



 Iteration IRREP Converged      Max. Euclidean
                 roots          residual norm

    7       a        0        1.014169741478205D-04
 

 NOTE: Residual norms are larger than 1.00D-05 due to mgrid option!

      ...terminated. cpu:     572.92       wall:     143.80
 
 
 
 
 CONSTRUCTING <a|x,y,z|i>*U(a,i)xi          -> Dip. deriv.
      ...terminated. cpu:       0.04       wall:       0.01
 
 
 
 
 CONSTRUCTING RHS(a,i)xi*U(a,i)chi          -> Hessian
      ...terminated. cpu:       0.00       wall:       0.00
 
 
 
 

            -----------------------
            permanent dipole moment
            -----------------------

                                   x                y                z
    electronic part       :    3.1632357819    72.2038564037    27.8689500172
     nuclear   part       :   -2.8500669941   -69.1722615822   -27.2462480039
     total                :    0.3131687877     3.0315948215     0.6227020134

 with reference to the point :   0.0000000        0.0000000        0.0000000
 (given in atomic units)
    | dipole |       :    7.9066480951  debye

   ***  dipole moment & cartesian dipole gradients written onto
        $dipole, $dipgrad,  file=<dipgrad>  ***

             -----------------------------------
             rotational and vibrational analysis
             -----------------------------------


            ==============================================================
            ATOMIC WEIGHTS (average over the natural occurance of isotops)
            ==============================================================
            ('*' denotes special isotop !)
              1     c                12.01115
              2     h                 1.00797
              3     h                 1.00797
              4     h                 1.00797
              5     o                15.99940
              6     s                32.06400
              7     o                15.99940

          -------------------------------------------------
          CARTESIAN FORCE CONSTANT MATRIX (hartree/bohr**2)
         (translational & rotational space projected out)
          -------------------------------------------------

   ATOM              1 c                           2 h 
                  dx        dy        dz        dx        dy        dz
   1 c     dx  0.5321867
           dy -0.0289335 0.5269546
           dz -0.0183398-0.0484815 0.5002416
   2 h     dx -0.0704869-0.0277151 0.0621294 0.0697834
           dy -0.0275530-0.0893463 0.0945974 0.0314895 0.0920518
           dz  0.0612081 0.0876413-0.2291194-0.0626200-0.0892926 0.2674951
   3 h     dx -0.2786176-0.0211943 0.0163861-0.0097223 0.0007541 0.0014415
           dy -0.0174362-0.0492333 0.0052860-0.0141446 0.0002795 0.0024094
           dz  0.0179575 0.0034266-0.0479725 0.0273443 0.0014583 0.0002161
   4 h     dx -0.1008355 0.1000279-0.0164667 0.0042414-0.0084091 0.0014418
           dy  0.0957790-0.2305010 0.0347320 0.0067821-0.0106685 0.0030147
           dz -0.0184520 0.0392235-0.0521988-0.0137595 0.0231422-0.0020804
   5 o     dx -0.0868758-0.0253431-0.0509458 0.0068755 0.0039655 0.0009015
           dy -0.0242159-0.1132258-0.0647121 0.0034091 0.0046390-0.0108560
           dz -0.0495950-0.0623148-0.1731238-0.0133411-0.0285883-0.0369266
   6 s     dx  0.0030778 0.0042850 0.0032092-0.0000202 0.0009146-0.0011984
           dy  0.0021450-0.0471683-0.0241148 0.0000756 0.0020477 0.0073249
           dz  0.0091663-0.0190626 0.0064740 0.0005618-0.0032705-0.0024587
   7 o     dx  0.0015513-0.0011269 0.0040276-0.0006708-0.0011616-0.0011745
           dy  0.0002146 0.0025201 0.0026930 0.0001034 0.0009969-0.0002415
           dz -0.0019451-0.0004324-0.0043011-0.0003148 0.0019535 0.0028739

   ATOM              3 h                           4 h 
                  dx        dy        dz        dx        dy        dz
   3 h     dx  0.3101222
           dy  0.0309455 0.0512259
           dz -0.0064141 0.0047932 0.0543252
   4 h     dx -0.0119659 0.0268135-0.0055900 0.1017806
           dy -0.0006769 0.0038269 0.0005712-0.1073634 0.2637654
           dz  0.0021792-0.0017471 0.0004323 0.0200682-0.0284463 0.0566021
   5 o     dx -0.0112080-0.0243428-0.0325861 0.0055520 0.0075328 0.0107482
           dy -0.0130112-0.0113024-0.0147628-0.0113880-0.0274872-0.0328209
           dz -0.0148411-0.0116638-0.0072084-0.0002381-0.0060527-0.0009309
   6 s     dx  0.0030940-0.0027676-0.0006137 0.0010882-0.0015468 0.0001983
           dy  0.0041837 0.0060304 0.0043652 0.0004146 0.0003927 0.0005583
           dz  0.0014133 0.0011850-0.0000867 0.0013492-0.0060729-0.0042077
   7 o     dx -0.0017025 0.0009322-0.0000979 0.0001391-0.0005068-0.0009823
           dy -0.0010010-0.0008270 0.0001484-0.0000955 0.0006717 0.0000903
           dz -0.0001648-0.0002626 0.0002940-0.0005644 0.0022540 0.0023834

   ATOM              5 o                           6 s 
                  dx        dy        dz        dx        dy        dz
   5 o     dx  0.1230726
           dy  0.0013224 0.2527868
           dz  0.0772636 0.0996142 0.2528892
   6 s     dx -0.0502874 0.0508198 0.0130898 0.1368944
           dy  0.0476159-0.0926670-0.0119086-0.0093962 0.2082919
           dz -0.0032072 0.0096348-0.0342029-0.1570268-0.0820767 0.2955998
   7 o     dx  0.0128711-0.0069362-0.0123381-0.0938467-0.0450386 0.1477434
           dy -0.0107507-0.0127433 0.0209140-0.0423087-0.0769274 0.0996628
           dz -0.0021744 0.0139028-0.0004966 0.1423415 0.1058517-0.2611178

   ATOM              7 o 
                  dx        dy        dz
   7 o     dx  0.0816585
           dy  0.0538379 0.0863091
           dz -0.1371781-0.1232671 0.2603642
 

   *** projected hessian written onto $hessian (projected), file=<hessian> ***

 dipole moment in principle axis system (a.u.) :
     0.5012425831     3.0025923359     0.6399959265
 norm :   3.11069118501085     

 rotational constants b for rotations around axis of inertia
 and optical intensities for (1 <-- 0) transition

   b   :     0.1253547957     0.4752644987     0.1491920354   (cm**(-1))
   b   :        3758.0422       14248.0712        4472.6647     (MHz)
  int. :     0.2512441271     9.0155607355     0.4095947859     (a.u.)

   x   :     0.9673068854    -0.0031274308    -0.2535894490
   y   :     0.0133956033     0.9991581849     0.0387747253
   z   :     0.2532547083    -0.0409040425     0.9665344857

   ***  normal modes written onto $vibrational normal modes, file=<vib_normal_modes>  ***

   ***  vibrational spectroscopic data written onto$vibrational spectrum   
        file=<vibspectrum>  ***

          ---------------------------------------------------
          NORMAL MODES and VIBRATIONAL FREQUENCIES (cm**(-1))
          ---------------------------------------------------

 imaginary wave numbers indicate a negative curvature of the energy surface.
 zero frequency modes have no physical meaning except being generators of
 translations and rotations. each vibrational normal mode - given in terms of
 cartesian displacement vectors of all atoms - has been normalized to unity.
 to obtain mass-weigthed normal coordinates in a.u. divide the tabulated
 modes by sqrt(reduced mass * 1822.88853).
 band intensities or cross sections refer to independent non-degenerate normal
 modes, that is, the intensities of degenerate modes have yet to be added.
 dDIP/dQ is the normal mode derivative of the dipole moment.


       mode               1        2        3        4        5        6

     frequency           0.00     0.00     0.00     0.00     0.00     0.00

     symmetry                                                             

        IR                -        -        -        -        -        - 
|dDIP/dQ|   (a.u.)     0.0000   0.0000   0.0000   0.0000   0.0000   0.0000
intensity (km/mol)       0.00     0.00     0.00     0.00     0.00     0.00
intensity (  %   )       0.00     0.00     0.00     0.00     0.00     0.00
 
       RAMAN              -        -        -        -        -        - 
 
  1   c           x  -0.14944  0.29477  0.08600  0.07281  0.36876 -0.12842
                  y  -0.30411 -0.08433  0.04579 -0.01078 -0.07321 -0.16472
                  z   0.19371 -0.16893  0.32803 -0.32675  0.08260  0.15204
  2   h           x  -0.14238  0.05041 -0.17625 -0.05148  0.53956 -0.32029
                  y  -0.32979  0.02247  0.00860  0.14939 -0.10002 -0.34561
                  z   0.18508 -0.19608  0.23564 -0.29645  0.12151  0.02040
  3   h           x  -0.15370  0.30526  0.10395  0.09489  0.38273 -0.12775
                  y  -0.26886 -0.15763 -0.08759 -0.18859 -0.20008 -0.15720
                  z   0.20271  0.06193  0.57524 -0.27713 -0.15313  0.39359
  4   h           x  -0.18007  0.38842  0.23380  0.23883  0.45388 -0.10836
                  y  -0.31745 -0.06381  0.11448  0.05239 -0.00902 -0.14381
                  z   0.20720 -0.36395  0.29551 -0.46929  0.25059  0.23543
  5   o           x  -0.11618  0.47095  0.21012 -0.00017  0.03882  0.08334
                  y  -0.30007 -0.14991  0.17443 -0.06395  0.04000  0.02403
                  z   0.17706 -0.18751  0.17497 -0.25475  0.12509 -0.08451
  6   s           x  -0.06524  0.32704 -0.02356 -0.27170 -0.11287  0.05992
                  y  -0.28305 -0.17609  0.08691 -0.14449 -0.04178 -0.00256
                  z   0.15362  0.09426  0.18902 -0.03001 -0.11181 -0.25868
  7   o           x  -0.05374  0.00766 -0.37018 -0.44380  0.09810 -0.18649
                  y  -0.32566 -0.01893  0.07550  0.10973 -0.04164 -0.23697
                  z   0.13941  0.00000  0.00000  0.00000  0.00000 -0.50091

reduced mass(g/mol)     9.984   11.112    7.375    9.379    3.928    9.277


       mode               7        8        9       10       11       12

     frequency         125.59   145.36   308.30   415.84   586.27   983.28

     symmetry            a        a        a        a        a        a   

        IR               YES      YES      YES      YES      YES      YES
|dDIP/dQ|   (a.u.)     0.0019   0.0008   0.0022   0.0013   0.0074   0.0117
intensity (km/mol)       6.69     1.08     8.38     3.05    97.06   243.28
intensity (  %   )       2.75     0.45     3.44     1.25    39.90   100.00
 
       RAMAN             YES      YES      YES      YES      YES      YES
 
  1   c           x   0.12381  0.00688 -0.10674 -0.05563  0.01060 -0.03166
                  y   0.20611 -0.02920  0.26305  0.17660  0.12986 -0.06732
                  z  -0.15914  0.00686  0.01578  0.04638  0.07454 -0.06891
  2   h           x   0.42807  0.47546 -0.09071 -0.03614  0.04917  0.02551
                  y   0.40749 -0.34364  0.21435  0.55969 -0.00093  0.03647
                  z   0.01566  0.01181  0.00187  0.21162  0.04875  0.01317
  3   h           x   0.10875 -0.05107 -0.14705 -0.07521  0.04939 -0.01764
                  y   0.27374  0.43461  0.67814  0.35429 -0.14257 -0.05748
                  z  -0.50542 -0.31372  0.15877  0.00242  0.03214 -0.03207
  4   h           x   0.03265 -0.43856 -0.43031 -0.17974  0.33504 -0.00862
                  y   0.15688 -0.20293  0.09181  0.05044  0.36369 -0.02019
                  z  -0.21681  0.35588 -0.06298 -0.40261  0.49384  0.07341
  5   o           x  -0.13158  0.01476  0.25840  0.02026 -0.31845  0.04131
                  y  -0.02880 -0.00392  0.13654 -0.21224  0.45907  0.01800
                  z   0.12882 -0.01889 -0.01490  0.32424 -0.08374  0.03348
  6   s           x   0.05622  0.01286 -0.12129  0.06054  0.16917 -0.20261
                  y   0.04327 -0.00516 -0.10541 -0.12700 -0.32210 -0.14808
                  z   0.09121  0.00555 -0.02835 -0.14627 -0.00918  0.36582
  7   o           x  -0.10992 -0.04481  0.10690 -0.08150 -0.05586  0.38854
                  y  -0.26546  0.04324 -0.18478  0.27342  0.07508  0.33189
                  z  -0.14764 -0.00079  0.05371 -0.05403  0.00997 -0.71832

reduced mass(g/mol)     4.422    1.092    4.735    6.210   10.287   18.930


       mode              13       14       15       16       17       18

     frequency        1071.42  1168.92  1179.03  1429.88  1454.29  1496.33

     symmetry            a        a        a        a        a        a   

        IR               YES      YES      YES      YES      YES      YES
|dDIP/dQ|   (a.u.)     0.0055   0.0013   0.0025   0.0012   0.0011   0.0013
intensity (km/mol)      53.49     3.19    10.82     2.76     2.13     3.10
intensity (  %   )      21.99     1.31     4.45     1.14     0.88     1.28
 
       RAMAN             YES      YES      YES      YES      YES      YES
 
  1   c           x  -0.11468  0.10805  0.09873  0.02544 -0.03196 -0.04864
                  y  -0.36499  0.03505 -0.08107  0.07925 -0.01726  0.02532
                  z  -0.34117 -0.08303  0.09880  0.06362  0.04452 -0.02466
  2   h           x  -0.09251 -0.37956 -0.09100 -0.12307 -0.01754  0.68746
                  y   0.07099 -0.37120  0.39123 -0.44751 -0.45994 -0.17974
                  z  -0.10662 -0.39121  0.23221 -0.20800 -0.16815  0.11846
  3   h           x  -0.10860  0.08374  0.02461  0.07146 -0.07923  0.01624
                  y   0.02589  0.27567  0.44549 -0.46453  0.49116 -0.16678
                  z  -0.20519  0.61625  0.13081 -0.33770 -0.15498  0.58207
  4   h           x  -0.18880 -0.21964 -0.25942 -0.35762  0.55127  0.01103
                  y  -0.38908 -0.09553 -0.34631 -0.20865  0.22005 -0.01897
                  z  -0.52404  0.14400 -0.58830 -0.47233 -0.36413 -0.33162
  5   o           x   0.09935 -0.05051 -0.05774  0.00318 -0.00486 -0.00825
                  y   0.30151 -0.01558  0.02843  0.02324 -0.00222  0.00358
                  z   0.30468  0.04022 -0.07003  0.01631  0.00904 -0.00514
  6   s           x   0.01713  0.00055  0.00023  0.00089 -0.00097  0.00003
                  y   0.00239 -0.00036  0.00068 -0.00668 -0.00052  0.00020
                  z  -0.01515  0.00120  0.00769  0.00230  0.00210  0.00050
  7   o           x  -0.02303  0.00076  0.00369  0.00171  0.00215 -0.00033
                  y  -0.01389  0.00203  0.00017  0.00126  0.00038  0.00003
                  z   0.03447 -0.00354 -0.00536 -0.00454 -0.00338 -0.00060

reduced mass(g/mol)     6.847    1.292    1.433    1.143    1.046    1.049


       mode              19       20       21

     frequency        2951.40  3012.51  3036.36

     symmetry            a        a        a   

        IR               YES      YES      YES
|dDIP/dQ|   (a.u.)     0.0093   0.0078   0.0056
intensity (km/mol)     153.41   108.70    55.04
intensity (  %   )      63.06    44.68    22.62
 
       RAMAN             YES      YES      YES
 
  1   c           x  -0.04021 -0.07852  0.00063
                  y  -0.02586  0.02938  0.06677
                  z  -0.01571  0.02671 -0.06396
  2   h           x  -0.10942  0.09818 -0.22700
                  y  -0.13602  0.19169 -0.30362
                  z   0.31505 -0.41101  0.72015
  3   h           x   0.81412  0.54295 -0.04033
                  y   0.09054  0.06729  0.01675
                  z  -0.02343 -0.01656 -0.01534
  4   h           x  -0.20457  0.29548  0.26622
                  y   0.38895 -0.61610 -0.50149
                  z  -0.05515  0.10229  0.06796
  5   o           x  -0.00109 -0.00062 -0.00031
                  y  -0.00352  0.00099 -0.00084
                  z  -0.00311  0.00014 -0.00088
  6   s           x   0.00006  0.00031 -0.00001
                  y   0.00075 -0.00023  0.00027
                  z  -0.00016  0.00037  0.00004
  7   o           x  -0.00034 -0.00007 -0.00007
                  y  -0.00021 -0.00010 -0.00016
                  z   0.00034 -0.00043  0.00013

reduced mass(g/mol)     1.036    1.093    1.102
 

         **************************************************************
         *                                                            *
         *  zero point VIBRATIONAL energy  :      0.0441162  Hartree  *
         *    SCF-energy                   :   -588.2852749           *
         *    SCF + E(vib0)                :   -588.2411586           *
         *                                                            *
         **************************************************************




 time elapsed for vibrational analysis     0.04 sec


    ------------------------------------------------------------------------
         total  cpu-time : 21 minutes and 55 seconds
         total wall-time :  5 minutes and 50 seconds
    ------------------------------------------------------------------------

   ****  force : all done  ****


    2019-01-28 17:59:33.024 

aoforce ended normally 
