   This run of MOLCAS is using the pymolcas driver

                             OPE
                             OPE          NMOL  CASOP  ENMOLC A   SO
                 OPE        NMOLC        AS  OP EN  MO LC     AS  OP
                OPENM       OL CA        SO  PE NM  OL CA     SOP EN
                OP EN      MO   LC       AS  OP ENMOL  CASO   PENMOL
                OP  EN     MO   LC       AS  OP EN     MO     LC ASO
               OP   E  NMOL  C  AS       OP  EN MO     LC     AS  OP
               OP  E   NMO   LC AS        OPEN  MO     LCASOP EN   M
               O  PEN   MO  LCA  SO
            OPE   NMO   L   CAS    OP
        OPENMOL  CASOP     ENMOL   CASOPE
     OPENMOLCA   SOPENMOLCASOPEN   MOLCASOPE
    OPENMOLCAS   OP           EN   MOL    CAS
    OPENMOLCAS       OP  ENM        O     LCA
    OPENMOLCAS    OPEN  MOLCASO     P  E  NMO
    OPENMOLCAS     OP               E  N  MOL
    OPENMOLCA   SO           PENM   O  L  CAS    OPEN    MO    LCAS
    OPENMOLCA   SOP           ENM   O  L  CAS   OP  EN  MOLC  AS   O
    OPENMOLCA   SOPE           NM      O  LCA   S      OP  EN MO
    OPENMOLC                AS         O  PEN   M      OL  CA  SOPE
    OPENMO        LCASOPE  NMOL        C  ASO   P      ENMOLC     AS
    OPE     NMO      LCA  SO     P     E   NM   OL  CA SO  PE N   MO
          OPENMOLCA            SOPE   NMO        LCAS  O    P  ENMO
     OPENMOLCASOPENMOLCASOPENMOLCASOPENMOLCA
        OPENMOLCASOPENMOLCASOPENMOLCASOPE
            OPENMOLCASOPENMOLCASOPENM
               OPENMOLCASOPENMOLCA        version: 18.09
                   OPENMOLCASO
                       OPE                tag: 50-g6d6e5e5-dirty

 OpenMolcas is free software; you can redistribute it and/or modify it
 under the terms of the GNU Lesser General Public License version 2.1.
 OpenMolcas is distributed in the hope that it will be useful, but it
 is provided "as is" and without any express or implied warranties.
 For more details see the full text of the license in the file
 LICENSE or in <http://www.gnu.org/licenses/>.

                 Copyright (C) The OpenMolcas Authors
           For the author list and the recommended citation,
                   consult the file CONTRIBUTORS.md

           *************************************************
           * pymolcas version py2.04                       *
           *   build 3b3f1139d1f9af0cd96dc01c0ce9d5c0      *
           *   (after the EMIL interpreter by V. Veryazov) *
           *************************************************

configuration info
------------------
C Compiler ID: Intel
C flags: -std=gnu99 -qopenmp
Fortran Compiler ID: Intel
Fortran flags: -fpp -i8 -r8 -heap-arrays -qopenmp
Definitions: _MOLCAS_;_I8_;_LINUX_;_MKL_;_FDE_
Parallel: OFF (GA=OFF)


   ------------------------------------------------------------------------------------------------------------------
  |
  |           Project: NpO2_CH3SO2_O2-m1-doublet.casscf.MB
  |    Submitted from: /home/vallet/John-methylsulfonyl/NpO2_CH3SO2_O2-m1/doublet-geom/optg-freq-pbe0-superoxo/SO-XMS
  |      Scratch area: /state/partition2/vallet/497680.phlam-s-sakura/NpO2_CH3SO2_O2-m1-doublet.casscf.MB
  |   Save outputs to: /home/vallet/John-methylsulfonyl/NpO2_CH3SO2_O2-m1/doublet-geom/optg-freq-pbe0-superoxo/SO-XMS
  |            Molcas: /home/pcmt/OpenMolcas/OpenMolcas-20181005
  |
  | Scratch area is empty
  |
  |    MOLCAS_DRIVER = /home/pcmt/OpenMolcas/OpenMolcas-20181005/sbin/pymolcas
  |   MOLCAS_LICENSE = /home/pcmt/molcas/license
  |    MOLCAS_MOLDEN = ON
  |    MOLCAS_NPROCS = 1
  |    MOLCAS_SOURCE = /home/pcmt/OpenMolcas/OpenMolcas-20181005
  | MOLCAS_STRUCTURE = 0
  |
   ------------------------------------------------------------------------------------------------------------------

++ ---------   Input file   ---------

&GATEWAY
   COORD=$HomeDir/NpO2_CH3SO2_O2-m1-doublet.pbe0.optg-zaxis.xyz
   BASIS=ANO-RCC-MB
   Group=Nosym
   ANGM=0.0 0.0 0.0
   RICD

>>> COPY $Project.RunFile $HomeDir

&SEWARD

&SCF
   Occupied=83

&RASSCF
   Spin=4
   Symmetry=1
   Nactel=5 0 0
   Inactive=81
   Ras2=6
   CIRoots=1 1 1
   Lumorb

>>> COPY $Project.RasOrb INPORB

&RASSCF
   Spin=4
   Symmetry=1
   Nactel=5 0 0
   Inactive=81
   Ras2=6
   CIRoots=12 12 1
   ALTER=1
 1 80 83

   Lumorb

>>> COPY $Project.RasOrb $HomeDir/$Project.RasOrb_quartets

>>> COPY $Project.rasscf.molden $HomeDir/$Project.rasscf_quartets.molden

>>> COPY $Project.RasOrb INPORB

&RASSCF
   Spin=2
   Symmetry=1
   Nactel=5 0 0
   Inactive=81
   Ras2=6
   CIRoots=24 24 1
   Lumorb

>>> COPY $Project.RasOrb $HomeDir/$Project.RasOrb_doublets

>>> COPY $Project.rasscf.molden $HomeDir/$Project.rasscf_doublets.molden

-- ----------------------------------

--- Start Module: gateway at Tue Nov 13 19:42:34 2018 ---
 
()()()()()()()()()()()()()()()()()()()()()()()()()()()()()()()()()()()()()()()()()()()()()()()()()()

                                              &GATEWAY

                                   only a single process is used
                       available to each process: 4.1 GB of memory, 8 threads
()()()()()()()()()()()()()()()()()()()()()()()()()()()()()()()()()()()()()()()()()()()()()()()()()()
 
 
++    Symmetry information:
      ---------------------
 
                    Character Table for C1 
 
                             E  
                    a        1  x, y, xy, Rz, z, xz, Ry, yz, Rx, I
--
 
 
++    Basis set information:
      ----------------------
 
 
      Basis set label: C.ANO-RCC...2S1P.
 
      Electronic valence basis set:
      ------------------
      Associated Effective Charge   6.000000 au
      Associated Actual Charge      6.000000 au
      Nuclear Model: Point charge
 
      Shell  nPrim  nBasis  Cartesian Spherical Contaminant
         s      14       2        X                  
         p       9       1        X                  
 
 
      Basis set label: S.ANO-RCC...3S2P.
 
      Electronic valence basis set:
      ------------------
      Associated Effective Charge  16.000000 au
      Associated Actual Charge     16.000000 au
      Nuclear Model: Point charge
 
      Shell  nPrim  nBasis  Cartesian Spherical Contaminant
         s      17       3        X                  
         p      12       2        X                  
 
 
      Basis set label: O.ANO-RCC...2S1P.
 
      Electronic valence basis set:
      ------------------
      Associated Effective Charge   8.000000 au
      Associated Actual Charge      8.000000 au
      Nuclear Model: Point charge
 
      Shell  nPrim  nBasis  Cartesian Spherical Contaminant
         s      14       2        X                  
         p       9       1        X                  
 
 
      Basis set label: NP.ANO-RCC...7S6P4D2F.
 
      Electronic valence basis set:
      ------------------
      Associated Effective Charge  93.000000 au
      Associated Actual Charge     93.000000 au
      Nuclear Model: Point charge
 
      Shell  nPrim  nBasis  Cartesian Spherical Contaminant
         s      26       7        X                  
         p      23       6        X                  
         d      17       4                 X         
         f      13       2                 X         
 
 
      Basis set label: O.ANO-RCC...2S1P.
 
      Electronic valence basis set:
      ------------------
      Associated Effective Charge   8.000000 au
      Associated Actual Charge      8.000000 au
      Nuclear Model: Point charge
 
      Shell  nPrim  nBasis  Cartesian Spherical Contaminant
         s      14       2        X                  
         p       9       1        X                  
 
 
      Basis set label: H.ANO-RCC...1S.
 
      Electronic valence basis set:
      ------------------
      Associated Effective Charge   1.000000 au
      Associated Actual Charge      1.000000 au
      Nuclear Model: Point charge
 
      Shell  nPrim  nBasis  Cartesian Spherical Contaminant
         s       8       1        X                  
 
 
      Basis set label: O.ANO-RCC...2S1P.
 
      Electronic valence basis set:
      ------------------
      Associated Effective Charge   8.000000 au
      Associated Actual Charge      8.000000 au
      Nuclear Model: Point charge
 
      Shell  nPrim  nBasis  Cartesian Spherical Contaminant
         s      14       2        X                  
         p       9       1        X                  
--
 
 
++    Molecular structure info:
      -------------------------
 
                    ************************************************ 
                    **** Cartesian Coordinates / Bohr, Angstrom **** 
                    ************************************************ 
 
     Center  Label                x              y              z                     x              y              z
        1      C1              -5.430714       3.615972      -3.723403             -2.873810       1.913490      -1.970340
        2      S2              -4.904727       3.279828      -0.347502             -2.595470       1.735610      -0.183890
        3      O3              -4.771067       0.399110      -0.073983             -2.524740       0.211200      -0.039150
        4      NP4              0.000000       0.000000       0.000000              0.000000       0.000000       0.000000
        5      O5               4.008449      -1.957983      -0.060528              2.121180      -1.036120      -0.032030
        6      O6              -2.202079       4.283253      -0.084565             -1.165290       2.266600      -0.044750
        7      O7               0.000000       0.000000       3.354472              0.000000       0.000000       1.775110
        8      O8               0.051306       0.087060      -3.362201              0.027150       0.046070      -1.779200
        9      H9              -5.395678       5.623353      -4.188389             -2.855270       2.975750      -2.216400
       10      H10             -3.898089       2.601435      -4.657192             -2.062780       1.376620      -2.464480
       11      H11             -7.264674       2.793147      -4.177920             -3.844300       1.478070      -2.210860
       12      O12              2.337308      -3.783780      -0.129862              1.236850      -2.002290      -0.068720
 
                    *************************************** 
                    *    InterNuclear Distances / Bohr    * 
                    *************************************** 
 
               1 C1            2 S2            3 O3            4 NP4           5 O5            6 O6    
    1 C1       0.000000
    2 S2       3.433127        0.000000
    3 O3       4.909338        2.896759        0.000000
    4 NP4      7.512099        5.910531        4.788303        0.000000
    5 O5      11.557830       10.342231        9.090433        4.461505        0.000000
    6 O6       4.910243        2.894876        4.656864        4.816904        8.804787        0.000000
    7 O7       9.626225        6.965503        5.888690        3.354472        5.618148        5.917971
    8 O8       6.529643        6.621514        5.845086        3.363719        5.544567        5.781754
    9 H9       2.060829        4.526097        6.679161        8.847488       12.765324        5.369945
   10 H10      2.061598        4.477384        5.159276        6.606966       10.219147        5.158864
   11 H11      2.060834        4.525297        5.365798        8.833582       12.907729        6.678760
   12 O12     11.314240       10.118744        8.247950        4.449366        2.476097        9.256625
 
               7 O7            8 O8            9 H9           10 H10          11 H11          12 O12   
    7 O7       0.000000
    8 O8       6.717433        0.000000
    9 H9      10.845745        7.810427        0.000000
   10 H10      9.281666        4.857655        3.405075        0.000000
   11 H11     10.831163        7.842951        3.391654        3.405929        0.000000
   12 O12      5.649830        5.536896       12.836076       10.007390       12.322370        0.000000
 
                    ******************************************* 
                    *    InterNuclear Distances / Angstrom    * 
                    ******************************************* 
 
               1 C1            2 S2            3 O3            4 NP4           5 O5            6 O6    
    1 C1       0.000000
    2 S2       1.816733        0.000000
    3 O3       2.597910        1.532899        0.000000
    4 NP4      3.975232        3.127718        2.533861        0.000000
    5 O5       6.116140        5.472873        4.810450        2.360927        0.000000
    6 O6       2.598389        1.531902        2.464306        2.548996        4.659292        0.000000
    7 O7       5.093979        3.685985        3.116161        1.775110        2.972996        3.131656
    8 O8       3.455338        3.503954        3.093087        1.780003        2.934059        3.059572
    9 H9       1.090544        2.395108        3.534460        4.681889        6.755119        2.841653
   10 H10      1.090951        2.369330        2.730172        3.496256        5.407740        2.729953
   11 H11      1.090546        2.394684        2.839458        4.674530        6.830476        3.534248
   12 O12      5.987238        5.354609        4.364627        2.354503        1.310294        4.898395
 
               7 O7            8 O8            9 H9           10 H10          11 H11          12 O12   
    7 O7       0.000000
    8 O8       3.554712        0.000000
    9 H9       5.739321        4.133100        0.000000
   10 H10      4.911646        2.570560        1.801888        0.000000
   11 H11      5.731605        4.150311        1.794786        1.802340        0.000000
   12 O12      2.989761        2.929999        6.792559        5.295683        6.520717        0.000000
 
                    ************************************** 
                    *    Valence Bond Angles / Degree    * 
                    ************************************** 
                          Atom centers                 Phi
                      9 H9       1 C1      10 H10      111.38
                      9 H9       1 C1      11 H11      110.75
                     10 H10      1 C1      11 H11      111.42
                      3 O3       2 S2       6 O6       107.04
--
 
 
            Nuclear Potential Energy           1873.81240793 au
 
--- Stop Module: gateway at Tue Nov 13 19:44:46 2018 /rc=_RC_ALL_IS_WELL_ ---
*** files: NpO2_CH3SO2_O2-m1-doublet.casscf.MB.RICDLib xmldump
    saved to directory /home/vallet/John-methylsulfonyl/NpO2_CH3SO2_O2-m1/doublet-geom/optg-freq-pbe0-superoxo/SO-XMS
--- Module gateway spent 2 minutes 11 seconds ---

>>> COPY NpO2_CH3SO2_O2-m1-doublet.casscf.MB.RunFile /home/vallet/John-methylsulfonyl/NpO2_CH3SO2_O2-m1/doublet-geom/optg-freq-pbe0-superoxo/SO-XMS

--- Start Module: seward at Tue Nov 13 19:44:46 2018 ---
 
()()()()()()()()()()()()()()()()()()()()()()()()()()()()()()()()()()()()()()()()()()()()()()()()()()

                                              &SEWARD

                                   only a single process is used
                       available to each process: 4.1 GB of memory, 8 threads
()()()()()()()()()()()()()()()()()()()()()()()()()()()()()()()()()()()()()()()()()()()()()()()()()()
 
               SEWARD will generate:
                  Multipole Moment integrals up to order  2
                  Kinetic Energy integrals
                  Nuclear Attraction integrals (point charge)
                  One-Electron Hamiltonian integrals
                  Velocity integrals
                  Relativistic Douglas-Kroll-Hess integrals:
                    - Parametrization         : EXP
                    - DKH order of Hamiltonian: 2
                    - DKH order of Properties : 0
                         - multipole moment operators
                         - electric potential operators
                         - contact operators
                  Orbital angular momentum around ( 0.0000  0.0000  0.0000 )
                  Atomic mean-field integrals
                  RI decomposed two-electron repulsion integrals stored Cholesky style
                   - acCD auxiliary basis
                   - CD Threshold:   0.10E-03
 
                   Integrals are discarded if absolute value <: 0.10E-13
                   Integral cutoff threshold is set to       <: 0.10E-15
 
            Nuclear Potential Energy           1873.81240793 au
 
 
      Basis set specifications :
      Symmetry species         a  
      Basis functions          106
 
 
  Input file to MOLDEN was generated!
 
--- Stop Module: seward at Tue Nov 13 19:45:02 2018 /rc=_RC_ALL_IS_WELL_ ---
*** files: NpO2_CH3SO2_O2-m1-doublet.casscf.MB.GssOrb NpO2_CH3SO2_O2-m1-doublet.casscf.MB.guessorb.h5 NpO2_CH3SO2_O2-m1-doublet.casscf.MB.guessorb.molden xmldump
    saved to directory /home/vallet/John-methylsulfonyl/NpO2_CH3SO2_O2-m1/doublet-geom/optg-freq-pbe0-superoxo/SO-XMS
--- Module seward spent 15 seconds ---

*** symbolic link created: INPORB -> NpO2_CH3SO2_O2-m1-doublet.casscf.MB.GssOrb
--- Start Module: scf at Tue Nov 13 19:45:02 2018 ---
 
()()()()()()()()()()()()()()()()()()()()()()()()()()()()()()()()()()()()()()()()()()()()()()()()()()

                                                &SCF

                                   only a single process is used
                       available to each process: 4.1 GB of memory, 8 threads
()()()()()()()()()()()()()()()()()()()()()()()()()()()()()()()()()()()()()()()()()()()()()()()()()()
 
++    Input section:
      --------------
 
      Header of the integral files:
      
       Integrals generated by seward 4.2.0  , Tue Nov 13 19:44:46 2018
 
 
      Cartesian coordinates in Angstrom:
      -----------------------------------------------------
      No.  Label        X            Y            Z        
      -----------------------------------------------------
       1   C1        -2.87381000   1.91349000  -1.97034000
       2   S2        -2.59547000   1.73561000  -0.18389000
       3   O3        -2.52474000   0.21120000  -0.03915000
       4   NP4        0.00000000   0.00000000   0.00000000
       5   O5         2.12118000  -1.03612000  -0.03203000
       6   O6        -1.16529000   2.26660000  -0.04475000
       7   O7         0.00000000   0.00000000   1.77511000
       8   O8         0.02715000   0.04607000  -1.77920000
       9   H9        -2.85527000   2.97575000  -2.21640000
      10   H10       -2.06278000   1.37662000  -2.46448000
      11   H11       -3.84430000   1.47807000  -2.21086000
      12   O12        1.23685000  -2.00229000  -0.06872000
      -----------------------------------------------------
      Nuclear repulsion energy = 1873.81240793
--
 
++    Orbital specifications:
      -----------------------
 
      Symmetry species               1
                                     a
      Frozen orbitals                0
      Occupied orbitals             83
      Secondary orbitals            23
      Deleted orbitals               0
      Total number of orbitals     106
      Number of basis functions    106
--
 
      Molecular charge                           0.000
 
++    Optimization specifications:
      ----------------------------
 
      SCF Algorithm: LK-RI/DF
      The actual AO density is used
      Number of density matrices in core                5
      Maximum number of NDDO SCF iterations           400
      Maximum number of HF SCF iterations             400
      Threshold for SCF energy change            0.10E-08
      Threshold for density matrix               0.10E-03
      Threshold for Fock matrix                  0.15E-03
      Threshold for linear dependence            0.10E-08
      Threshold at which DIIS is turned on       0.15E+00
      Threshold at which QNR/C2DIIS is turned on 0.75E-01
      Threshold for Norm(delta) (QNR/C2DIIS)     0.20E-04
      DIIS extrapolation of the SCF procedure
      All orbitals punched on: SCFORB
--
 
      Detected guessorb starting orbitals                                             
 
 
++ Convergence information
                                   SCF        iterations: Energy and convergence statistics
 
Iter     Tot. SCF        One-elec.       Two-elec.     Energy      Max Dij or  Max Fij      DNorm      TNorm      AccCon     Time
         Energy          Energy          Energy        Change      Delta Norm                                                in Sec.
 
 The total and one-electron energies are shifted by a value of     29000. a.u.
 
   1  -622.102366112-14948.561200755 12452.646426714   0.00E+00    0.61E+00*   0.17E+00*    0.18E+02   0.19E+04   None         6.
   2  -619.907842206-14966.424371109 12472.704120975   0.22E+01*   0.31E+00*   0.73E-01*    0.20E+02   0.19E+04   EDIIS        5.
   3  -623.144704886-14962.158756663 12465.201643848  -0.32E+01*   0.18E+00*   0.78E-01*    0.19E+02   0.19E+04   EDIIS        5.
   4  -623.434460143-14943.372201646 12446.125333574  -0.29E+00*   0.12E+00*   0.85E-01*    0.19E+02   0.19E+04   EDIIS        5.
   5  -623.743349057-14957.965927504 12460.410170518  -0.31E+00*   0.18E+00*   0.60E-01*    0.19E+02   0.19E+04   EDIIS        5.
   6  -623.793784221-14945.996697863 12448.390505713  -0.50E-01*   0.83E-01*   0.25E-01*    0.19E+02   0.19E+04   EDIIS        5.
   7  -623.793146361-14959.190606713 12461.585052423   0.64E-03*   0.51E-01*   0.15E-01*    0.19E+02   0.19E+04   c2DIIS       5.
   8  -623.802446982-14951.962622455 12454.347767544  -0.93E-02*   0.20E-01*   0.29E-02*    0.19E+02   0.19E+04   QNRc2DIIS    5.
   9  -623.802849836-14952.063802541 12454.448544777  -0.40E-03*   0.35E-01*   0.19E-02*    0.19E+02   0.19E+04   QNRc2DIIS    5.
  10  -623.803095107-14952.012195793 12454.396692757  -0.25E-03*   0.48E-02*   0.97E-03*    0.19E+02   0.19E+04   QNRc2DIIS    5.
  11  -623.803116790-14952.185417932 12454.569893214  -0.22E-04*   0.10E-01*   0.88E-03*    0.19E+02   0.19E+04   QNRc2DIIS    5.
  12  -623.803146974-14952.104068348 12454.488513445  -0.30E-04*   0.77E-02*   0.92E-03*    0.19E+02   0.19E+04   QNRc2DIIS    5.
  13  -623.803166390-14952.143247555 12454.527673236  -0.19E-04*   0.31E-01*   0.96E-03*    0.19E+02   0.19E+04   QNRc2DIIS    5.
  14  -623.803245423-14951.993571571 12454.377918219  -0.79E-04*   0.56E-01*   0.11E-02*    0.19E+02   0.19E+04   QNRc2DIIS    5.
  15  -623.803379124-14951.853893709 12454.238106656  -0.13E-03*   0.54E-01*   0.14E-02*    0.19E+02   0.19E+04   QNRc2DIIS    5.
  16  -623.803517897-14951.677056924 12454.061131099  -0.14E-03*   0.92E-01*   0.15E-02*    0.19E+02   0.19E+04   QNRc2DIIS    5.
  17  -623.803716164-14951.443081612 12453.826957520  -0.20E-03*   0.63E-01*   0.16E-02*    0.19E+02   0.19E+04   QNRc2DIIS    5.
  18  -623.803872838-14951.394048414 12453.777767647  -0.16E-03*   0.61E-01*   0.19E-02*    0.19E+02   0.19E+04   QNRc2DIIS    5.
  19  -623.804038591-14951.475161332 12453.858714813  -0.17E-03*   0.56E-01*   0.20E-02*    0.19E+02   0.19E+04   QNRc2DIIS    5.
  20  -623.804197888-14951.372017463 12453.755411647  -0.16E-03*   0.15E+00*   0.21E-02*    0.19E+02   0.19E+04   QNRc2DIIS    5.
  21  -623.804704616-14951.188476614 12453.571364070  -0.51E-03*   0.18E+00*   0.20E-02*    0.19E+02   0.19E+04   QNRc2DIIS    5.
  22  -623.805191342-14950.867045619 12453.249446348  -0.49E-03*   0.57E-01*   0.26E-02*    0.19E+02   0.19E+04   QNRc2DIIS    5.
  23  -623.805762748-14950.700299191 12453.082128514  -0.57E-03*   0.41E-01*   0.20E-02*    0.19E+02   0.19E+04   QNRc2DIIS    5.
  24  -623.805994298-14950.478549513 12452.860147287  -0.23E-03*   0.44E-01*   0.35E-02*    0.19E+02   0.19E+04   QNRc2DIIS    5.
  25  -623.805865947-14950.446294170 12452.828020295   0.13E-03*   0.33E+00*   0.33E-02*    0.19E+02   0.19E+04   QNRc2DIIS    5.
  26  -623.806429392-14949.934288633 12452.315451312  -0.56E-03*   0.19E-01*   0.28E-02*    0.19E+02   0.19E+04   QNRc2DIIS    5.
  27  -623.806726071-14950.103074766 12452.483940766  -0.30E-03*   0.45E-01*   0.19E-02*    0.19E+02   0.19E+04   QNRc2DIIS    5.
  28  -623.807101418-14949.795478600 12452.175969253  -0.38E-03*   0.11E+00*   0.20E-02*    0.19E+02   0.19E+04   QNRc2DIIS    5.
  29  -623.807213313-14949.703653683 12452.084032441  -0.11E-03*   0.32E-01*   0.14E-02*    0.19E+02   0.19E+04   QNRc2DIIS    5.
  30  -623.807303630-14949.696703702 12452.076992144  -0.90E-04*   0.21E-01*   0.10E-02*    0.19E+02   0.19E+04   QNRc2DIIS    5.
  31  -623.807379757-14949.617026378 12451.997238692  -0.76E-04*   0.18E-01*   0.48E-03*    0.19E+02   0.19E+04   QNRc2DIIS    5.
  32  -623.807409302-14949.706599497 12452.086782267  -0.30E-04*   0.90E-02*   0.48E-03*    0.19E+02   0.19E+04   QNRc2DIIS    5.
  33  -623.807431704-14949.676510013 12452.056670380  -0.22E-04*   0.67E-02*   0.41E-03*    0.19E+02   0.19E+04   QNRc2DIIS    6.
  34  -623.807441467-14949.758010762 12452.138161367  -0.98E-05*   0.42E-02*   0.38E-03*    0.19E+02   0.19E+04   QNRc2DIIS    6.
  35  -623.807448729-14949.742851092 12452.122994434  -0.73E-05*   0.76E-02*   0.33E-03*    0.19E+02   0.19E+04   QNRc2DIIS    6.
  36  -623.807458083-14949.728344015 12452.108478004  -0.94E-05*   0.42E-02*   0.25E-03*    0.19E+02   0.19E+04   QNRc2DIIS    6.
  37  -623.807461254-14949.707862376 12452.087993193  -0.32E-05*   0.36E-02*   0.20E-03*    0.19E+02   0.19E+04   QNRc2DIIS    6.
  38  -623.807464210-14949.688111879 12452.068239741  -0.30E-05*   0.26E-02*   0.16E-03*    0.19E+02   0.19E+04   QNRc2DIIS    6.
  39  -623.807465818-14949.683743195 12452.063869447  -0.16E-05*   0.28E-02*   0.12E-03     0.19E+02   0.19E+04   QNRc2DIIS    6.
  40  -623.807467733-14949.695917701 12452.076042040  -0.19E-05*   0.22E-02*   0.12E-03     0.19E+02   0.19E+04   QNRc2DIIS    6.
  41  -623.807468754-14949.706187121 12452.086310438  -0.10E-05*   0.14E-02*   0.10E-03     0.19E+02   0.19E+04   QNRc2DIIS    6.
  42  -623.807469160-14949.711312849 12452.091435761  -0.41E-06*   0.31E-02*   0.88E-04     0.19E+02   0.19E+04   QNRc2DIIS    6.
  43  -623.807470376-14949.707090120 12452.087211815  -0.12E-05*   0.13E-02*   0.49E-04     0.19E+02   0.19E+04   QNRc2DIIS    6.
  44  -623.807470753-14949.705728346 12452.085849665  -0.38E-06*   0.16E-02*   0.48E-04     0.19E+02   0.19E+04   QNRc2DIIS    6.
  45  -623.807471069-14949.706170193 12452.086291195  -0.32E-06*   0.42E-03*   0.40E-04     0.19E+02   0.19E+04   QNRc2DIIS    6.
  46  -623.807471164-14949.705410342 12452.085531249  -0.95E-07*   0.50E-03*   0.34E-04     0.19E+02   0.19E+04   QNRc2DIIS    6.
  47  -623.807471220-14949.704440479 12452.084561331  -0.55E-07*   0.20E-03*   0.22E-04     0.19E+02   0.19E+04   QNRc2DIIS    6.
  48  -623.807471237-14949.704186810 12452.084307645  -0.17E-07*   0.25E-03*   0.16E-04     0.19E+02   0.19E+04   QNRc2DIIS    6.
  49  -623.807471183-14949.704475809 12452.084596696   0.53E-07*   0.18E-03*   0.75E-05     0.19E+02   0.19E+04   QNRc2DIIS    6.
  50  -623.807471182-14949.704687399 12452.084808288   0.16E-08*   0.81E-04*   0.45E-05     0.19E+02   0.19E+04   QNRc2DIIS    6.
  51  -623.807471238-14949.704774051 12452.084894884  -0.57E-07*   0.52E-04*   0.22E-05     0.19E+02   0.19E+04   QNRc2DIIS    6.
  52  -623.807471195-14949.704685475 12452.084806351   0.43E-07*   0.40E-04*   0.91E-06     0.19E+02   0.19E+04   QNRc2DIIS    6.
  53  -623.807471193-14949.704686012 12452.084806890   0.24E-08*   0.44E-05    0.15E-05     0.19E+02   0.19E+04   QNRc2DIIS    6.
  54  -623.807471186-14949.704686496 12452.084807381   0.66E-08*   0.22E-04*   0.13E-05     0.19E+02   0.19E+04   QNRc2DIIS    6.
  55  -623.807471189-14949.704750263 12452.084871146  -0.21E-08*   0.30E-05    0.19E-06     0.19E+02   0.19E+04   QNRc2DIIS    6.
  56  -623.807471191-14949.704745881 12452.084866762  -0.22E-08*   0.36E-05    0.13E-06     0.19E+02   0.19E+04   QNRc2DIIS    6.
  57  -623.807471190-14949.704740382 12452.084861264   0.11E-08*   0.32E-06    0.35E-07     0.19E+02   0.19E+04   QNRc2DIIS    6.
  58  -623.807471194-14949.704740638 12452.084861516  -0.42E-08*   0.29E-06    0.23E-07     0.19E+02   0.19E+04   QNRc2DIIS    6.
  59  -623.807471191-14949.704740236 12452.084861117   0.32E-08*   0.15E-06    0.68E-08     0.19E+02   0.19E+04   QNRc2DIIS    6.
  60  -623.807471192-14949.704740140 12452.084861020  -0.11E-08*   0.64E-07    0.76E-08     0.19E+02   0.19E+04   QNRc2DIIS    6.
  61  -623.807471192-14949.704739845 12452.084860724  -0.33E-09    0.35E-07    0.77E-08     0.19E+02   0.19E+04   QNRc2DIIS    6.
 
       Convergence after 61 Macro Iterations
--
 
 *****************************************************************************************************************************
 *                                                                                                                           *
 *                                             SCF/KS-DFT Program, Final results                                             *
 *                                                                                                                           *
 *                                                                                                                           *
 *                                                                                                                           *
 *                                                       Final Results                                                       *
 *                                                                                                                           *
 *****************************************************************************************************************************
 
::    Total SCF energy                             -29623.8074711921
      One-electron energy                          -43949.7047398447
      Two-electron energy                           12452.0848607239
      Nuclear repulsion energy                       1873.8124079287
      Kinetic energy (interpolated)                 55096.6129569754
      Virial theorem                                    0.5376702102
      Total spin, S(S+1)                                0.0000000000
      Total spin, S                                     0.0000000000
      Max non-diagonal density matrix element           0.0000000465
      Max non-diagonal Fock matrix element              0.0000000147
 
 
      All orbitals with orbital energies smaller than  E(LUMO)+0.5 are printed
 
++    Molecular orbitals:
      -------------------
 
      Title: SCF orbitals

      Molecular orbitals for symmetry species 1: a  
 
          Some orbital energies have been scaled by powers of 10, the power is written right after the orbital index
 
 
          Orbital            1 (1)     2         3         4         5         6         7         8         9        10    
          Energy         -437.3446 -829.1231 -693.4698 -693.4698 -693.4667 -213.5437 -175.2764 -175.2759 -175.2573 -139.6359
          Occ. No.          2.0000    2.0000    2.0000    2.0000    2.0000    2.0000    2.0000    2.0000    2.0000    2.0000
 
        1 C1     1s        -0.0000   -0.0000    0.0000    0.0000    0.0000   -0.0000    0.0000    0.0000   -0.0000   -0.0000
        2 C1     2s        -0.0000   -0.0000   -0.0000   -0.0000    0.0000   -0.0000    0.0000   -0.0000   -0.0000   -0.0000
        3 C1     2px       -0.0000   -0.0000   -0.0000   -0.0000   -0.0000   -0.0000    0.0000   -0.0000   -0.0000    0.0000
        4 C1     2py        0.0000    0.0000    0.0000   -0.0000    0.0000    0.0000    0.0000    0.0000    0.0000    0.0000
        5 C1     2pz       -0.0000   -0.0000   -0.0000   -0.0000   -0.0000   -0.0000   -0.0000   -0.0000   -0.0000    0.0000
        6 S2     1s        -0.0000   -0.0000   -0.0000   -0.0000   -0.0000   -0.0000   -0.0000   -0.0000    0.0000    0.0000
        7 S2     2s        -0.0000   -0.0000   -0.0000   -0.0000   -0.0000   -0.0000   -0.0000   -0.0000    0.0000    0.0000
        8 S2     3s        -0.0000   -0.0000   -0.0000   -0.0000    0.0000   -0.0000   -0.0000   -0.0000    0.0000    0.0000
        9 S2     2px        0.0000    0.0000   -0.0000   -0.0000   -0.0000    0.0000   -0.0000   -0.0000   -0.0000    0.0000
       10 S2     3px        0.0000    0.0000   -0.0000    0.0000   -0.0000    0.0000   -0.0000   -0.0000    0.0000    0.0000
       11 S2     2py       -0.0000   -0.0000    0.0000   -0.0000    0.0000   -0.0000    0.0000    0.0000    0.0000   -0.0000
       12 S2     3py       -0.0000   -0.0000    0.0000    0.0000    0.0000   -0.0000   -0.0000    0.0000    0.0000   -0.0000
       13 S2     2pz       -0.0000   -0.0000   -0.0000   -0.0000    0.0000   -0.0000   -0.0000   -0.0000    0.0000    0.0000
       14 S2     3pz       -0.0000   -0.0000   -0.0000   -0.0000    0.0000   -0.0000   -0.0000   -0.0000   -0.0000   -0.0000
       15 O3     1s         0.0000    0.0000   -0.0000    0.0000   -0.0000    0.0000   -0.0000   -0.0000    0.0000    0.0000
       16 O3     2s         0.0000    0.0000   -0.0000    0.0000    0.0000    0.0000   -0.0000   -0.0000    0.0000    0.0000
       17 O3     2px        0.0000    0.0000    0.0000   -0.0000    0.0000    0.0000    0.0000    0.0000    0.0000   -0.0000
       18 O3     2py       -0.0000   -0.0000    0.0000   -0.0000    0.0000    0.0000    0.0000    0.0000   -0.0000    0.0000
       19 O3     2pz        0.0000    0.0000   -0.0000   -0.0000    0.0000    0.0000    0.0000   -0.0000    0.0000    0.0000
       20 NP4    1s         1.0000   -0.0000    0.0000    0.0000   -0.0000    0.0000    0.0000    0.0000    0.0000    0.0000
       21 NP4    2s         0.0000    1.0000    0.0000    0.0000   -0.0000   -0.0000    0.0000    0.0000   -0.0000    0.0000
       22 NP4    3s        -0.0000    0.0000   -0.0000    0.0000    0.0000    1.0000    0.0000    0.0000   -0.0000    0.0000
       23 NP4    4s         0.0000   -0.0000   -0.0000   -0.0000   -0.0000   -0.0000    0.0000    0.0000    0.0000   -0.0000
       24 NP4    5s        -0.0000    0.0000    0.0000    0.0000    0.0000    0.0000   -0.0000   -0.0000   -0.0000   -0.0000
       25 NP4    6s         0.0000   -0.0000    0.0000    0.0000   -0.0000    0.0000    0.0000    0.0000    0.0000    0.0000
       26 NP4    7s        -0.0000   -0.0000    0.0000    0.0000   -0.0000   -0.0000    0.0000    0.0000   -0.0000   -0.0000
       27 NP4    2px       -0.0000   -0.0000    0.8582   -0.5132   -0.0008    0.0000   -0.0000   -0.0000    0.0000    0.0000
       28 NP4    3px       -0.0000   -0.0000    0.0000   -0.0000   -0.0000   -0.0000    0.6192    0.7852   -0.0026    0.0000
       29 NP4    4px        0.0000    0.0000   -0.0000    0.0000    0.0000    0.0000   -0.0000   -0.0000    0.0000   -0.0000
       30 NP4    5px       -0.0000    0.0000    0.0000   -0.0000   -0.0000   -0.0000    0.0000    0.0000    0.0000    0.0000
       31 NP4    6px       -0.0000   -0.0000   -0.0000    0.0000   -0.0000    0.0000   -0.0000   -0.0000   -0.0000   -0.0000
       32 NP4    7px       -0.0000   -0.0000    0.0000   -0.0000   -0.0000   -0.0000    0.0000    0.0000    0.0000    0.0000
       33 NP4    2py        0.0000    0.0000   -0.5131   -0.8580   -0.0232    0.0000   -0.0000    0.0000   -0.0000    0.0000
       34 NP4    3py        0.0000    0.0000   -0.0000   -0.0000    0.0000    0.0000    0.7851   -0.6191   -0.0199    0.0000
       35 NP4    4py       -0.0000   -0.0000    0.0000    0.0000    0.0000   -0.0000   -0.0000    0.0000    0.0000   -0.0000
       36 NP4    5py        0.0000    0.0000   -0.0000   -0.0000   -0.0000    0.0000    0.0000   -0.0000   -0.0000    0.0000
       37 NP4    6py        0.0000    0.0000    0.0000    0.0000   -0.0000    0.0000   -0.0000    0.0000   -0.0000   -0.0000
       38 NP4    7py        0.0000    0.0000   -0.0000   -0.0000   -0.0000    0.0000    0.0000   -0.0000   -0.0000    0.0000
       39 NP4    2pz        0.0000    0.0000   -0.0112   -0.0204    0.9997   -0.0000   -0.0000    0.0000    0.0000    0.0000
       40 NP4    3pz       -0.0000    0.0000   -0.0000   -0.0000   -0.0000    0.0000    0.0172   -0.0103    0.9998    0.0000
       41 NP4    4pz        0.0000   -0.0000    0.0000    0.0000   -0.0000    0.0000   -0.0000    0.0000   -0.0000   -0.0000
       42 NP4    5pz       -0.0000    0.0000   -0.0000   -0.0000    0.0000   -0.0000    0.0000   -0.0000    0.0000    0.0000
       43 NP4    6pz        0.0000   -0.0000   -0.0000    0.0000    0.0000    0.0000    0.0000   -0.0000    0.0000   -0.0000
       44 NP4    7pz       -0.0000   -0.0000   -0.0000   -0.0000    0.0000   -0.0000    0.0000   -0.0000    0.0000    0.0000
       45 NP4    3d2-       0.0000    0.0000    0.0000    0.0000    0.0000    0.0000   -0.0000    0.0000    0.0000   -0.1748
       46 NP4    4d2-      -0.0000   -0.0000   -0.0000   -0.0000   -0.0000    0.0000   -0.0000    0.0000    0.0000    0.0000
       47 NP4    5d2-       0.0000   -0.0000    0.0000    0.0000    0.0000    0.0000    0.0000   -0.0000   -0.0000   -0.0000
       48 NP4    6d2-       0.0000    0.0000   -0.0000   -0.0000    0.0000    0.0000    0.0000   -0.0000    0.0000   -0.0000
       49 NP4    3d1-      -0.0000    0.0000   -0.0000   -0.0000    0.0000    0.0000    0.0000   -0.0000    0.0000   -0.0204
       50 NP4    4d1-      -0.0000   -0.0000    0.0000    0.0000   -0.0000    0.0000    0.0000   -0.0000    0.0000    0.0000
       51 NP4    5d1-       0.0000    0.0000   -0.0000   -0.0000    0.0000   -0.0000   -0.0000    0.0000   -0.0000   -0.0000
       52 NP4    6d1-      -0.0000   -0.0000   -0.0000    0.0000   -0.0000   -0.0000    0.0000   -0.0000    0.0000    0.0000
       53 NP4    3d0        0.0000   -0.0000    0.0000   -0.0000    0.0000   -0.0002    0.0000    0.0000    0.0000    0.0062
       54 NP4    4d0        0.0000    0.0000   -0.0000   -0.0000   -0.0000   -0.0000    0.0000    0.0000    0.0000    0.0000
       55 NP4    5d0       -0.0000   -0.0000    0.0000    0.0000    0.0000    0.0000   -0.0000   -0.0000   -0.0000    0.0000
       56 NP4    6d0        0.0000    0.0000   -0.0000   -0.0000   -0.0000    0.0000    0.0000   -0.0000    0.0000    0.0000
       57 NP4    3d1+      -0.0000    0.0000    0.0000   -0.0000   -0.0000    0.0000    0.0000    0.0000   -0.0000   -0.0009
       58 NP4    4d1+       0.0000    0.0000   -0.0000    0.0000    0.0000    0.0000    0.0000    0.0000   -0.0000    0.0000
       59 NP4    5d1+      -0.0000   -0.0000    0.0000   -0.0000   -0.0000   -0.0000   -0.0000   -0.0000    0.0000   -0.0000
       60 NP4    6d1+       0.0000    0.0000    0.0000    0.0000    0.0000    0.0000    0.0000    0.0000   -0.0000    0.0000
       61 NP4    3d2+      -0.0000   -0.0000   -0.0000    0.0000    0.0000   -0.0000   -0.0000   -0.0000    0.0000    0.9844
       62 NP4    4d2+       0.0000   -0.0000    0.0000   -0.0000   -0.0000   -0.0000   -0.0000   -0.0000    0.0000    0.0000
       63 NP4    5d2+      -0.0000    0.0000   -0.0000    0.0000    0.0000   -0.0000    0.0000    0.0000   -0.0000    0.0000
       64 NP4    6d2+      -0.0000   -0.0000    0.0000   -0.0000    0.0000   -0.0000   -0.0000    0.0000   -0.0000    0.0000
       65 NP4    4f3-       0.0000    0.0000    0.0000    0.0000    0.0000    0.0000    0.0000    0.0000   -0.0000    0.0000
       66 NP4    5f3-       0.0000    0.0000   -0.0000   -0.0000   -0.0000    0.0000    0.0000   -0.0000   -0.0000   -0.0000
       67 NP4    4f2-      -0.0000    0.0000    0.0000   -0.0000    0.0000    0.0000    0.0000    0.0000    0.0000   -0.0000
       68 NP4    5f2-      -0.0000   -0.0000   -0.0000    0.0000   -0.0000   -0.0000   -0.0000   -0.0000   -0.0000    0.0000
       69 NP4    4f1-      -0.0000   -0.0000    0.0000    0.0000    0.0000   -0.0000   -0.0000    0.0000    0.0000   -0.0000
       70 NP4    5f1-      -0.0000   -0.0000   -0.0000   -0.0000   -0.0000   -0.0000    0.0000   -0.0000   -0.0000    0.0000
       71 NP4    4f0        0.0000    0.0000    0.0000    0.0000   -0.0000    0.0000   -0.0000    0.0000   -0.0001    0.0000
       72 NP4    5f0       -0.0000   -0.0000   -0.0000   -0.0000    0.0000   -0.0000    0.0000   -0.0000    0.0000   -0.0000
       73 NP4    4f1+       0.0000    0.0000   -0.0000    0.0000    0.0000    0.0000   -0.0000   -0.0000    0.0000    0.0000
       74 NP4    5f1+       0.0000   -0.0000    0.0000   -0.0000   -0.0000    0.0000    0.0000    0.0000   -0.0000   -0.0000
       75 NP4    4f2+       0.0000   -0.0000    0.0000    0.0000   -0.0000    0.0000   -0.0000    0.0000   -0.0000    0.0000
       76 NP4    5f2+      -0.0000    0.0000   -0.0000   -0.0000    0.0000   -0.0000    0.0000   -0.0000    0.0000   -0.0000
       77 NP4    4f3+       0.0000    0.0000    0.0000    0.0000    0.0000    0.0000   -0.0000    0.0000    0.0000   -0.0000
       78 NP4    5f3+       0.0000    0.0000   -0.0000   -0.0000   -0.0000    0.0000   -0.0000   -0.0000   -0.0000    0.0000
       79 O5     1s         0.0000    0.0000    0.0000    0.0000   -0.0000    0.0000    0.0000    0.0000   -0.0000    0.0000
       80 O5     2s         0.0000    0.0000   -0.0000    0.0000    0.0000    0.0000    0.0000    0.0000   -0.0000   -0.0000
       81 O5     2px       -0.0000   -0.0000    0.0000   -0.0000   -0.0000   -0.0000    0.0000    0.0000   -0.0000    0.0000
       82 O5     2py        0.0000    0.0000   -0.0000    0.0000    0.0000    0.0000    0.0000   -0.0000    0.0000   -0.0000
       83 O5     2pz        0.0000    0.0000   -0.0000    0.0000   -0.0000    0.0000    0.0000   -0.0000    0.0000    0.0000
       84 O6     1s         0.0000    0.0000   -0.0000   -0.0000   -0.0000    0.0000    0.0000   -0.0000   -0.0000   -0.0000
       85 O6     2s         0.0000    0.0000   -0.0000   -0.0000   -0.0000    0.0000    0.0000   -0.0000    0.0000   -0.0000
       86 O6     2px        0.0000    0.0000    0.0000    0.0000    0.0000    0.0000   -0.0000    0.0000    0.0000    0.0000
       87 O6     2py       -0.0000   -0.0000   -0.0000   -0.0000   -0.0000   -0.0000    0.0000   -0.0000   -0.0000   -0.0000
       88 O6     2pz        0.0000    0.0000   -0.0000    0.0000    0.0000    0.0000   -0.0000   -0.0000    0.0000    0.0000
       89 O7     1s         0.0000    0.0000    0.0000    0.0000   -0.0000    0.0000   -0.0000    0.0000   -0.0000   -0.0000
       90 O7     2s        -0.0000   -0.0000    0.0000    0.0000   -0.0000    0.0000   -0.0000    0.0000   -0.0000   -0.0000
       91 O7     2px        0.0000    0.0000   -0.0000    0.0000   -0.0000    0.0000   -0.0000   -0.0000    0.0000    0.0000
       92 O7     2py       -0.0000   -0.0000    0.0000    0.0000    0.0000   -0.0000   -0.0000    0.0000    0.0000    0.0000
       93 O7     2pz        0.0000    0.0000   -0.0000   -0.0000    0.0000    0.0000    0.0000   -0.0000    0.0000    0.0000
       94 O8     1s         0.0000    0.0000   -0.0000    0.0000    0.0000    0.0000   -0.0000   -0.0000    0.0000   -0.0000
       95 O8     2s        -0.0000   -0.0000    0.0000    0.0000    0.0000    0.0000   -0.0000   -0.0000    0.0000   -0.0000
       96 O8     2px        0.0000    0.0000   -0.0000    0.0000   -0.0000    0.0000   -0.0000   -0.0000   -0.0000    0.0000
       97 O8     2py        0.0000    0.0000    0.0000    0.0000   -0.0000    0.0000   -0.0000    0.0000   -0.0000    0.0000
       98 O8     2pz       -0.0000   -0.0000    0.0000    0.0000    0.0000   -0.0000   -0.0000   -0.0000    0.0000   -0.0000
       99 H9     1s         0.0000    0.0000    0.0000    0.0000    0.0000    0.0000   -0.0000    0.0000    0.0000    0.0000
      100 H10    1s        -0.0000   -0.0000   -0.0000   -0.0000   -0.0000   -0.0000   -0.0000   -0.0000    0.0000    0.0000
      101 H11    1s         0.0000    0.0000    0.0000   -0.0000    0.0000    0.0000    0.0000    0.0000    0.0000   -0.0000
      102 O12    1s         0.0000    0.0000    0.0000    0.0000   -0.0000    0.0000   -0.0000    0.0000   -0.0000    0.0000
      103 O12    2s         0.0000    0.0000   -0.0000   -0.0000    0.0000    0.0000   -0.0000    0.0000   -0.0000    0.0000
      104 O12    2px       -0.0000   -0.0000    0.0000    0.0000   -0.0000   -0.0000   -0.0000    0.0000   -0.0000   -0.0000
      105 O12    2py        0.0000    0.0000   -0.0000   -0.0000    0.0000    0.0000    0.0000   -0.0000    0.0000    0.0000
      106 O12    2pz        0.0000    0.0000   -0.0000   -0.0000   -0.0000    0.0000    0.0000   -0.0000    0.0000   -0.0000
 
          Orbital           11        12        13        14        15        16        17        18        19        20    
          Energy         -139.6322 -139.6278 -139.6274 -139.6222  -92.5414  -56.6747  -43.9161  -43.9151  -43.8796  -30.2682
          Occ. No.          2.0000    2.0000    2.0000    2.0000    2.0000    2.0000    2.0000    2.0000    2.0000    2.0000
 
        1 C1     1s        -0.0000   -0.0000   -0.0000    0.0000   -0.0000   -0.0000    0.0000    0.0000    0.0000   -0.0000
        2 C1     2s        -0.0000   -0.0000   -0.0000    0.0000    0.0000   -0.0000    0.0000   -0.0000    0.0000   -0.0000
        3 C1     2px        0.0000   -0.0000    0.0000    0.0000    0.0000   -0.0000    0.0000   -0.0000   -0.0000   -0.0000
        4 C1     2py        0.0000   -0.0000   -0.0000   -0.0000   -0.0000    0.0000    0.0000    0.0000    0.0000   -0.0000
        5 C1     2pz        0.0000    0.0000    0.0000    0.0000    0.0000   -0.0000   -0.0000   -0.0000   -0.0000   -0.0000
        6 S2     1s         0.0000   -0.0000    0.0000    0.0000    1.0000   -0.0000   -0.0000   -0.0000   -0.0000    0.0000
        7 S2     2s         0.0000   -0.0000    0.0000   -0.0000   -0.0000   -0.0000   -0.0000   -0.0000   -0.0000    0.0000
        8 S2     3s         0.0000   -0.0000    0.0000    0.0000   -0.0004   -0.0000   -0.0000   -0.0000   -0.0000    0.0000
        9 S2     2px        0.0000    0.0000    0.0000   -0.0000    0.0001    0.0000    0.0000   -0.0000   -0.0000    0.0000
       10 S2     3px        0.0000   -0.0000    0.0000   -0.0000   -0.0000    0.0000   -0.0000   -0.0000   -0.0000    0.0000
       11 S2     2py       -0.0000   -0.0000   -0.0000    0.0000   -0.0001   -0.0000    0.0000    0.0000    0.0000   -0.0000
       12 S2     3py       -0.0000   -0.0000   -0.0000    0.0000    0.0000   -0.0000    0.0000    0.0000    0.0000   -0.0000
       13 S2     2pz        0.0000   -0.0000   -0.0000    0.0000   -0.0001   -0.0000   -0.0000   -0.0000    0.0000    0.0000
       14 S2     3pz        0.0000   -0.0000   -0.0000    0.0000    0.0000   -0.0000   -0.0000   -0.0000    0.0000   -0.0000
       15 O3     1s        -0.0000    0.0000    0.0000   -0.0000    0.0000    0.0000   -0.0000   -0.0000   -0.0000   -0.0000
       16 O3     2s        -0.0000    0.0000    0.0000    0.0000    0.0000    0.0000   -0.0000   -0.0000   -0.0000   -0.0000
       17 O3     2px        0.0000    0.0000    0.0000    0.0000    0.0000    0.0000    0.0000    0.0000    0.0000   -0.0000
       18 O3     2py        0.0000   -0.0000   -0.0000   -0.0000    0.0000   -0.0000    0.0000    0.0000    0.0000   -0.0000
       19 O3     2pz        0.0000   -0.0000   -0.0000   -0.0000   -0.0000    0.0000    0.0000   -0.0000    0.0000    0.0000
       20 NP4    1s        -0.0000   -0.0000    0.0000   -0.0000   -0.0000   -0.0000   -0.0000   -0.0000   -0.0000    0.0000
       21 NP4    2s         0.0000   -0.0000    0.0000    0.0000   -0.0000    0.0000   -0.0000   -0.0000    0.0000    0.0000
       22 NP4    3s         0.0000   -0.0000    0.0000    0.0002   -0.0000    0.0000   -0.0000   -0.0000   -0.0000   -0.0000
       23 NP4    4s        -0.0000    0.0000   -0.0000   -0.0000   -0.0000    1.0000    0.0000    0.0000   -0.0000   -0.0000
       24 NP4    5s        -0.0000   -0.0000    0.0000   -0.0000   -0.0000   -0.0001    0.0000    0.0000    0.0000    0.0000
       25 NP4    6s         0.0000    0.0000   -0.0000    0.0000   -0.0000    0.0000   -0.0000   -0.0000   -0.0000    0.0000
       26 NP4    7s        -0.0000   -0.0000   -0.0000   -0.0000   -0.0000   -0.0000    0.0000    0.0000    0.0000    0.0000
       27 NP4    2px        0.0000   -0.0000   -0.0000   -0.0000    0.0000    0.0000    0.0000    0.0000   -0.0000    0.0000
       28 NP4    3px        0.0000   -0.0000   -0.0000   -0.0000    0.0000   -0.0000    0.0000    0.0000   -0.0000    0.0000
       29 NP4    4px        0.0000    0.0000    0.0000    0.0000    0.0000   -0.0000    0.6012    0.7991   -0.0023    0.0000
       30 NP4    5px       -0.0000   -0.0000    0.0000   -0.0000    0.0000    0.0000   -0.0001   -0.0001   -0.0000   -0.0000
       31 NP4    6px        0.0000    0.0000    0.0000    0.0000    0.0000   -0.0000    0.0000    0.0000   -0.0000    0.0000
       32 NP4    7px       -0.0000   -0.0000    0.0000   -0.0000    0.0000   -0.0000   -0.0000   -0.0000   -0.0000    0.0000
       33 NP4    2py       -0.0000   -0.0000    0.0000    0.0000   -0.0000   -0.0000    0.0000   -0.0000   -0.0000   -0.0000
       34 NP4    3py       -0.0000   -0.0000    0.0000    0.0000   -0.0000    0.0000    0.0000   -0.0000   -0.0000    0.0000
       35 NP4    4py       -0.0000    0.0000   -0.0000   -0.0000   -0.0000   -0.0000    0.7989   -0.6011   -0.0204   -0.0000
       36 NP4    5py        0.0000    0.0000    0.0000    0.0000   -0.0000   -0.0000   -0.0001    0.0001    0.0000    0.0000
       37 NP4    6py       -0.0000   -0.0000   -0.0000   -0.0000   -0.0000    0.0000    0.0000   -0.0000   -0.0000   -0.0000
       38 NP4    7py       -0.0000   -0.0000   -0.0000    0.0000   -0.0000    0.0000   -0.0000    0.0000    0.0000   -0.0000
       39 NP4    2pz       -0.0000   -0.0000    0.0000   -0.0000    0.0000    0.0000    0.0000   -0.0000    0.0000   -0.0000
       40 NP4    3pz       -0.0000    0.0000    0.0000   -0.0000    0.0000   -0.0000    0.0000   -0.0000    0.0000   -0.0000
       41 NP4    4pz       -0.0000    0.0000    0.0000    0.0000    0.0000    0.0000    0.0177   -0.0105    0.9998   -0.0000
       42 NP4    5pz        0.0000   -0.0000    0.0000    0.0000    0.0000   -0.0000   -0.0000   -0.0000   -0.0002    0.0000
       43 NP4    6pz        0.0000    0.0000   -0.0000   -0.0000   -0.0000    0.0000    0.0000   -0.0000    0.0001   -0.0000
       44 NP4    7pz        0.0000   -0.0000   -0.0000   -0.0000   -0.0000   -0.0000   -0.0000   -0.0000   -0.0000   -0.0000
       45 NP4    3d2-      -0.9841   -0.0132   -0.0181    0.0226    0.0000   -0.0000    0.0000    0.0000   -0.0000    0.0000
       46 NP4    4d2-       0.0000    0.0000    0.0000   -0.0000    0.0000    0.0000   -0.0000   -0.0000    0.0000    0.9849
       47 NP4    5d2-      -0.0000    0.0000   -0.0000    0.0000    0.0000   -0.0000    0.0000   -0.0000    0.0000   -0.0002
       48 NP4    6d2-       0.0000    0.0000    0.0000    0.0000    0.0000    0.0000    0.0000   -0.0000   -0.0000   -0.0000
       49 NP4    3d1-       0.0041    0.7741   -0.6321   -0.0301    0.0000   -0.0000   -0.0000    0.0000   -0.0000    0.0000
       50 NP4    4d1-      -0.0000   -0.0000    0.0000    0.0000    0.0000    0.0000    0.0000   -0.0000   -0.0000   -0.0003
       51 NP4    5d1-      -0.0000   -0.0000   -0.0000   -0.0000    0.0000   -0.0000   -0.0000    0.0000   -0.0000   -0.0000
       52 NP4    6d1-      -0.0000   -0.0000    0.0000   -0.0000   -0.0000   -0.0000    0.0000   -0.0000    0.0000    0.0000
       53 NP4    3d0        0.0217    0.0279   -0.0135    0.9993    0.0000    0.0000   -0.0000   -0.0000   -0.0000    0.0000
       54 NP4    4d0       -0.0000   -0.0000    0.0000   -0.0000    0.0000   -0.0010    0.0000    0.0000    0.0000   -0.0141
       55 NP4    5d0        0.0000    0.0000   -0.0000    0.0000    0.0000    0.0001    0.0000    0.0000   -0.0000    0.0000
       56 NP4    6d0        0.0000   -0.0000   -0.0000    0.0000    0.0000    0.0000    0.0000   -0.0000    0.0000   -0.0000
       57 NP4    3d1+      -0.0227    0.6322    0.7744   -0.0067   -0.0000    0.0000   -0.0000   -0.0000   -0.0000    0.0000
       58 NP4    4d1+       0.0000   -0.0000   -0.0000    0.0000   -0.0000    0.0000    0.0000    0.0000    0.0000    0.0200
       59 NP4    5d1+      -0.0000   -0.0000    0.0000   -0.0000   -0.0000   -0.0000   -0.0000   -0.0000    0.0000   -0.0000
       60 NP4    6d1+       0.0000   -0.0000   -0.0000   -0.0000    0.0000    0.0000    0.0000    0.0000   -0.0000   -0.0000
       61 NP4    3d2+      -0.1748    0.0141   -0.0156   -0.0029   -0.0000   -0.0000    0.0000    0.0000   -0.0000    0.0000
       62 NP4    4d2+       0.0000   -0.0000    0.0000    0.0000   -0.0000   -0.0000    0.0000    0.0000   -0.0000    0.1716
       63 NP4    5d2+      -0.0000   -0.0000   -0.0000    0.0000   -0.0000    0.0000    0.0000    0.0000   -0.0000   -0.0000
       64 NP4    6d2+       0.0000    0.0000    0.0000   -0.0000   -0.0000   -0.0000   -0.0000    0.0000    0.0000   -0.0000
       65 NP4    4f3-       0.0000    0.0000    0.0000   -0.0000   -0.0000    0.0000    0.0001   -0.0000    0.0000    0.0000
       66 NP4    5f3-      -0.0000   -0.0000   -0.0000    0.0000   -0.0000    0.0000   -0.0000   -0.0000   -0.0000    0.0000
       67 NP4    4f2-      -0.0000   -0.0000    0.0000    0.0000   -0.0000    0.0000    0.0000    0.0000    0.0000    0.0000
       68 NP4    5f2-       0.0000    0.0000   -0.0000   -0.0000    0.0000   -0.0000    0.0000    0.0000   -0.0000   -0.0000
       69 NP4    4f1-      -0.0000    0.0000   -0.0000    0.0000    0.0000   -0.0000   -0.0005    0.0004    0.0000    0.0000
       70 NP4    5f1-       0.0000   -0.0000    0.0000   -0.0000    0.0000    0.0000    0.0000   -0.0000    0.0000    0.0000
       71 NP4    4f0        0.0000    0.0000    0.0000    0.0000   -0.0000    0.0000   -0.0000    0.0000   -0.0006   -0.0000
       72 NP4    5f0       -0.0000   -0.0000   -0.0000   -0.0000   -0.0000   -0.0000   -0.0000    0.0000   -0.0000   -0.0000
       73 NP4    4f1+       0.0000    0.0000    0.0000   -0.0000   -0.0000    0.0000   -0.0004   -0.0005    0.0000   -0.0000
       74 NP4    5f1+      -0.0000   -0.0000   -0.0000    0.0000   -0.0000   -0.0000    0.0000    0.0000    0.0000    0.0000
       75 NP4    4f2+      -0.0000   -0.0000   -0.0000    0.0000    0.0000   -0.0000   -0.0000    0.0000   -0.0000    0.0000
       76 NP4    5f2+       0.0000    0.0000    0.0000   -0.0000   -0.0000    0.0000   -0.0000   -0.0000    0.0000    0.0000
       77 NP4    4f3+       0.0000   -0.0000    0.0000   -0.0000   -0.0000    0.0000   -0.0000   -0.0001   -0.0000    0.0000
       78 NP4    5f3+      -0.0000    0.0000   -0.0000    0.0000   -0.0000    0.0000   -0.0000    0.0000    0.0000    0.0000
       79 O5     1s         0.0000   -0.0000   -0.0000   -0.0000   -0.0000    0.0000    0.0000    0.0000    0.0000    0.0000
       80 O5     2s         0.0000   -0.0000   -0.0000    0.0000   -0.0000    0.0000   -0.0000    0.0000    0.0000   -0.0000
       81 O5     2px       -0.0000    0.0000    0.0000   -0.0000   -0.0000   -0.0000    0.0000    0.0000   -0.0000    0.0000
       82 O5     2py       -0.0000    0.0000   -0.0000    0.0000   -0.0000    0.0000   -0.0000   -0.0000    0.0000   -0.0000
       83 O5     2pz        0.0000   -0.0000    0.0000    0.0000    0.0000    0.0000   -0.0000   -0.0000    0.0000   -0.0000
       84 O6     1s         0.0000   -0.0000    0.0000   -0.0000    0.0000    0.0000    0.0000   -0.0000   -0.0000    0.0000
       85 O6     2s         0.0000   -0.0000    0.0000    0.0000    0.0000    0.0000    0.0000   -0.0000   -0.0000    0.0000
       86 O6     2px        0.0000   -0.0000    0.0000    0.0000   -0.0000    0.0000   -0.0000    0.0000   -0.0000   -0.0000
       87 O6     2py       -0.0000    0.0000   -0.0000   -0.0000   -0.0000   -0.0000    0.0000   -0.0000   -0.0000    0.0000
       88 O6     2pz        0.0000    0.0000   -0.0000   -0.0000   -0.0000    0.0000   -0.0000   -0.0000    0.0000   -0.0000
       89 O7     1s        -0.0000   -0.0000    0.0000   -0.0000    0.0000    0.0000   -0.0000    0.0000   -0.0000   -0.0000
       90 O7     2s        -0.0000   -0.0000    0.0000   -0.0000    0.0000   -0.0000   -0.0000    0.0000   -0.0000    0.0000
       91 O7     2px        0.0000   -0.0000   -0.0000   -0.0000   -0.0000    0.0000   -0.0000   -0.0000    0.0000    0.0000
       92 O7     2py        0.0000   -0.0000    0.0000    0.0000    0.0000   -0.0000   -0.0000    0.0000   -0.0000    0.0000
       93 O7     2pz        0.0000    0.0000   -0.0000    0.0000    0.0000    0.0000    0.0000   -0.0000    0.0000    0.0000
       94 O8     1s        -0.0000    0.0000   -0.0000   -0.0000    0.0000    0.0000   -0.0000   -0.0000    0.0000   -0.0000
       95 O8     2s        -0.0000    0.0000   -0.0000   -0.0000    0.0000   -0.0000   -0.0000   -0.0000    0.0000    0.0000
       96 O8     2px        0.0000    0.0000    0.0000    0.0000   -0.0000    0.0000   -0.0000   -0.0000   -0.0000   -0.0000
       97 O8     2py        0.0000    0.0000   -0.0000    0.0000    0.0000    0.0000   -0.0000    0.0000    0.0000    0.0000
       98 O8     2pz       -0.0000    0.0000    0.0000   -0.0000   -0.0000   -0.0000   -0.0000    0.0000    0.0000   -0.0000
       99 H9     1s        -0.0000    0.0000   -0.0000    0.0000   -0.0000    0.0000   -0.0000    0.0000    0.0000   -0.0000
      100 H10    1s         0.0000    0.0000    0.0000   -0.0000   -0.0000   -0.0000   -0.0000   -0.0000   -0.0000   -0.0000
      101 H11    1s         0.0000   -0.0000   -0.0000    0.0000   -0.0000    0.0000    0.0000    0.0000    0.0000   -0.0000
      102 O12    1s         0.0000    0.0000   -0.0000   -0.0000   -0.0000    0.0000   -0.0000    0.0000    0.0000    0.0000
      103 O12    2s         0.0000    0.0000   -0.0000    0.0000   -0.0000    0.0000   -0.0000    0.0000    0.0000   -0.0000
      104 O12    2px        0.0000   -0.0000    0.0000   -0.0000    0.0000   -0.0000   -0.0000    0.0000   -0.0000    0.0000
      105 O12    2py       -0.0000   -0.0000   -0.0000    0.0000    0.0000    0.0000    0.0000   -0.0000    0.0000   -0.0000
      106 O12    2pz        0.0000    0.0000    0.0000    0.0000    0.0000    0.0000    0.0000   -0.0000    0.0000   -0.0000
 
          Orbital           21        22        23        24        25        26        27        28        29        30    
          Energy          -30.2615  -30.2397  -30.2388  -30.2347  -20.9683  -20.9628  -20.5441  -20.5383  -20.3993  -20.3979
          Occ. No.          2.0000    2.0000    2.0000    2.0000    2.0000    2.0000    2.0000    2.0000    2.0000    2.0000
 
        1 C1     1s        -0.0000    0.0000    0.0000   -0.0000   -0.0000    0.0000    0.0000   -0.0000    0.0000    0.0000
        2 C1     2s        -0.0000    0.0000    0.0000   -0.0000   -0.0000   -0.0000    0.0000   -0.0000   -0.0000   -0.0000
        3 C1     2px        0.0000   -0.0000   -0.0000    0.0000   -0.0000   -0.0000    0.0000    0.0000    0.0000    0.0000
        4 C1     2py        0.0000    0.0000    0.0000   -0.0000    0.0000    0.0000   -0.0000   -0.0000   -0.0000    0.0000
        5 C1     2pz        0.0000   -0.0000   -0.0000    0.0000   -0.0000   -0.0000    0.0000    0.0000   -0.0000   -0.0000
        6 S2     1s         0.0000    0.0000   -0.0000    0.0000   -0.0000   -0.0000    0.0000    0.0000   -0.0000   -0.0000
        7 S2     2s         0.0000    0.0000   -0.0000    0.0000   -0.0000   -0.0000    0.0000    0.0000   -0.0002   -0.0002
        8 S2     3s         0.0000   -0.0000   -0.0000    0.0000   -0.0000   -0.0000    0.0000    0.0000   -0.0009   -0.0009
        9 S2     2px        0.0000   -0.0000   -0.0000    0.0000   -0.0000   -0.0000    0.0000    0.0000   -0.0000   -0.0001
       10 S2     3px        0.0000    0.0000   -0.0000    0.0000   -0.0000    0.0000    0.0000    0.0000   -0.0000   -0.0008
       11 S2     2py       -0.0000    0.0000    0.0000   -0.0000   -0.0000    0.0000   -0.0000   -0.0000    0.0001   -0.0000
       12 S2     3py       -0.0000    0.0000    0.0000   -0.0000   -0.0000    0.0000   -0.0000   -0.0000    0.0009   -0.0003
       13 S2     2pz        0.0000    0.0000    0.0000    0.0000   -0.0000   -0.0000    0.0000   -0.0000   -0.0000   -0.0000
       14 S2     3pz       -0.0000    0.0000    0.0000    0.0000   -0.0000   -0.0000    0.0000   -0.0000   -0.0001   -0.0001
       15 O3     1s         0.0000   -0.0000   -0.0000    0.0000   -0.0000   -0.0000   -0.0000   -0.0000    1.0000    0.0094
       16 O3     2s         0.0000   -0.0000   -0.0000    0.0000   -0.0000   -0.0000    0.0000    0.0000    0.0018    0.0001
       17 O3     2px       -0.0000   -0.0000   -0.0000    0.0000   -0.0000   -0.0000   -0.0000   -0.0000    0.0004    0.0001
       18 O3     2py       -0.0000    0.0000    0.0000   -0.0000    0.0000    0.0000   -0.0000   -0.0000    0.0018    0.0000
       19 O3     2pz        0.0000    0.0000    0.0000    0.0000   -0.0000   -0.0000    0.0000   -0.0000   -0.0002    0.0000
       20 NP4    1s         0.0000   -0.0000    0.0000   -0.0000   -0.0000   -0.0000   -0.0000   -0.0000   -0.0000   -0.0000
       21 NP4    2s         0.0000   -0.0000    0.0000   -0.0000   -0.0000   -0.0000   -0.0000   -0.0000   -0.0000   -0.0000
       22 NP4    3s        -0.0000    0.0000   -0.0000    0.0000   -0.0000   -0.0000   -0.0000   -0.0000   -0.0000   -0.0000
       23 NP4    4s        -0.0000    0.0000   -0.0000    0.0010   -0.0000   -0.0000   -0.0001   -0.0001   -0.0000   -0.0000
       24 NP4    5s         0.0000    0.0000    0.0000   -0.0005   -0.0000   -0.0000   -0.0002   -0.0002   -0.0000   -0.0000
       25 NP4    6s         0.0000   -0.0000    0.0000    0.0001   -0.0001   -0.0001   -0.0006   -0.0006   -0.0001   -0.0001
       26 NP4    7s        -0.0000   -0.0000    0.0000   -0.0001   -0.0002   -0.0002   -0.0006   -0.0006   -0.0002   -0.0002
       27 NP4    2px        0.0000    0.0000    0.0000    0.0000   -0.0000   -0.0000   -0.0000   -0.0000    0.0000    0.0000
       28 NP4    3px       -0.0000   -0.0000   -0.0000   -0.0000   -0.0000   -0.0000   -0.0000   -0.0000    0.0000    0.0000
       29 NP4    4px        0.0000   -0.0000   -0.0000   -0.0000   -0.0000   -0.0000   -0.0000   -0.0000    0.0000    0.0000
       30 NP4    5px       -0.0000    0.0000   -0.0000   -0.0000   -0.0000   -0.0000   -0.0000   -0.0000    0.0000    0.0000
       31 NP4    6px        0.0000   -0.0000   -0.0000    0.0000   -0.0001   -0.0001   -0.0000   -0.0000    0.0001    0.0001
       32 NP4    7px        0.0000   -0.0000   -0.0000    0.0000   -0.0002   -0.0002    0.0000    0.0000    0.0002    0.0002
       33 NP4    2py        0.0000    0.0000   -0.0000   -0.0000    0.0000    0.0000    0.0000   -0.0000   -0.0000   -0.0000
       34 NP4    3py       -0.0000   -0.0000    0.0000    0.0000    0.0000    0.0000    0.0000   -0.0000   -0.0000   -0.0000
       35 NP4    4py        0.0000   -0.0000    0.0000   -0.0000    0.0000    0.0000    0.0000   -0.0000   -0.0000   -0.0000
       36 NP4    5py       -0.0000    0.0000    0.0000    0.0000    0.0000    0.0000    0.0000   -0.0000   -0.0000   -0.0000
       37 NP4    6py       -0.0000    0.0000    0.0000   -0.0000    0.0001    0.0001   -0.0000   -0.0000   -0.0000   -0.0001
       38 NP4    7py       -0.0000   -0.0000    0.0000   -0.0000    0.0002    0.0001   -0.0000   -0.0000   -0.0001   -0.0002
       39 NP4    2pz        0.0000    0.0000   -0.0000    0.0000    0.0000    0.0000   -0.0000    0.0000    0.0000    0.0000
       40 NP4    3pz        0.0000   -0.0000    0.0000   -0.0000    0.0000    0.0000   -0.0000    0.0000    0.0000    0.0000
       41 NP4    4pz       -0.0000   -0.0000   -0.0000   -0.0000    0.0000    0.0000   -0.0000    0.0000    0.0000    0.0000
       42 NP4    5pz       -0.0000    0.0000    0.0000    0.0000    0.0000    0.0000   -0.0001    0.0001    0.0000    0.0000
       43 NP4    6pz        0.0000   -0.0000   -0.0000    0.0000    0.0000    0.0000   -0.0006    0.0006    0.0000    0.0000
       44 NP4    7pz        0.0000    0.0000   -0.0000    0.0000    0.0000    0.0000   -0.0005    0.0005    0.0000    0.0000
       45 NP4    3d2-       0.0000   -0.0000   -0.0000    0.0000    0.0000    0.0000   -0.0000   -0.0000    0.0000    0.0000
       46 NP4    4d2-       0.1715   -0.0144   -0.0144    0.0153    0.0000    0.0000   -0.0000   -0.0000    0.0000    0.0000
       47 NP4    5d2-      -0.0000    0.0000    0.0000   -0.0000    0.0000    0.0000   -0.0000   -0.0000    0.0000    0.0000
       48 NP4    6d2-       0.0000   -0.0000   -0.0000    0.0000    0.0002    0.0002   -0.0000    0.0000    0.0001    0.0002
       49 NP4    3d1-       0.0000    0.0000   -0.0000   -0.0000   -0.0000   -0.0000    0.0000    0.0000   -0.0000    0.0000
       50 NP4    4d1-       0.0219    0.7964   -0.6028   -0.0438   -0.0000   -0.0000    0.0000    0.0000    0.0000    0.0000
       51 NP4    5d1-      -0.0000   -0.0002    0.0001    0.0000   -0.0000   -0.0000    0.0000    0.0000    0.0000    0.0000
       52 NP4    6d1-       0.0000    0.0001   -0.0001   -0.0000   -0.0000   -0.0000    0.0000    0.0000    0.0000    0.0000
       53 NP4    3d0        0.0000    0.0000   -0.0000    0.0000    0.0000    0.0000   -0.0000   -0.0000    0.0000    0.0000
       54 NP4    4d0       -0.0076    0.0338   -0.0282    0.9989    0.0000    0.0000   -0.0000   -0.0000    0.0000    0.0000
       55 NP4    5d0        0.0000   -0.0000    0.0000   -0.0002    0.0000    0.0000   -0.0001   -0.0001    0.0000    0.0000
       56 NP4    6d0        0.0000    0.0000   -0.0000    0.0001    0.0001    0.0001   -0.0005   -0.0005    0.0001    0.0001
       57 NP4    3d1+       0.0000    0.0000    0.0000    0.0000    0.0000    0.0000   -0.0000    0.0000   -0.0000   -0.0000
       58 NP4    4d1+       0.0024    0.6034    0.7972    0.0024    0.0000    0.0000   -0.0000    0.0000   -0.0000   -0.0000
       59 NP4    5d1+       0.0000   -0.0001   -0.0002   -0.0000    0.0000    0.0000   -0.0000    0.0000   -0.0000   -0.0000
       60 NP4    6d1+      -0.0000    0.0001    0.0001    0.0000    0.0000    0.0000   -0.0000    0.0000   -0.0000   -0.0000
       61 NP4    3d2+       0.0000    0.0000   -0.0000   -0.0000    0.0000   -0.0000    0.0000    0.0000   -0.0000   -0.0000
       62 NP4    4d2+      -0.9849    0.0164   -0.0137   -0.0061   -0.0000    0.0000    0.0000   -0.0000   -0.0000    0.0000
       63 NP4    5d2+       0.0002   -0.0000    0.0000    0.0000   -0.0000    0.0000   -0.0000    0.0000   -0.0000    0.0000
       64 NP4    6d2+      -0.0000    0.0000   -0.0000   -0.0000    0.0000   -0.0000   -0.0000   -0.0000   -0.0001    0.0000
       65 NP4    4f3-       0.0000    0.0000    0.0000   -0.0000    0.0000    0.0000   -0.0000   -0.0000   -0.0000    0.0000
       66 NP4    5f3-       0.0000   -0.0000    0.0000    0.0000    0.0000    0.0000   -0.0000   -0.0000   -0.0000   -0.0000
       67 NP4    4f2-       0.0000    0.0000   -0.0000    0.0000   -0.0000   -0.0000    0.0000   -0.0000   -0.0000   -0.0000
       68 NP4    5f2-      -0.0000    0.0000   -0.0000   -0.0000   -0.0000   -0.0000    0.0000   -0.0000   -0.0000   -0.0000
       69 NP4    4f1-       0.0000    0.0000   -0.0000   -0.0000   -0.0000   -0.0000    0.0000   -0.0000    0.0000    0.0000
       70 NP4    5f1-       0.0000   -0.0000    0.0000   -0.0000   -0.0000   -0.0000    0.0000   -0.0000    0.0000    0.0000
       71 NP4    4f0        0.0000   -0.0000    0.0000    0.0000   -0.0000   -0.0000   -0.0000    0.0000   -0.0000   -0.0000
       72 NP4    5f0       -0.0000    0.0000   -0.0000    0.0000   -0.0000   -0.0000   -0.0000    0.0000   -0.0000   -0.0000
       73 NP4    4f1+      -0.0000    0.0000    0.0000    0.0000    0.0000    0.0000    0.0000   -0.0000   -0.0000   -0.0000
       74 NP4    5f1+      -0.0000    0.0000   -0.0000    0.0000    0.0000    0.0000   -0.0000   -0.0000   -0.0000   -0.0000
       75 NP4    4f2+      -0.0000   -0.0000    0.0000   -0.0000   -0.0000   -0.0000   -0.0000    0.0000    0.0000   -0.0000
       76 NP4    5f2+       0.0000    0.0000    0.0000    0.0000    0.0000    0.0000   -0.0000    0.0000    0.0000   -0.0000
       77 NP4    4f3+      -0.0000   -0.0000   -0.0000   -0.0000    0.0000    0.0000   -0.0000   -0.0000    0.0000   -0.0000
       78 NP4    5f3+      -0.0000   -0.0000   -0.0000    0.0000    0.0000    0.0000   -0.0000   -0.0000    0.0000   -0.0000
       79 O5     1s         0.0000    0.0000    0.0000    0.0000    0.9986   -0.0545    0.0000    0.0000   -0.0000   -0.0000
       80 O5     2s         0.0000   -0.0000    0.0000    0.0000    0.0001   -0.0005    0.0000    0.0000   -0.0000   -0.0000
       81 O5     2px        0.0000    0.0000   -0.0000    0.0000   -0.0012    0.0002    0.0000    0.0000   -0.0000   -0.0000
       82 O5     2py        0.0000   -0.0000    0.0000    0.0000   -0.0009    0.0003   -0.0000   -0.0000    0.0000   -0.0000
       83 O5     2pz        0.0000    0.0000   -0.0000   -0.0000   -0.0000    0.0000    0.0000   -0.0000   -0.0000   -0.0000
       84 O6     1s        -0.0000    0.0000   -0.0000    0.0000   -0.0000   -0.0000   -0.0000   -0.0000   -0.0094    1.0000
       85 O6     2s        -0.0000    0.0000   -0.0000    0.0000   -0.0000   -0.0000    0.0000    0.0000    0.0000    0.0018
       86 O6     2px       -0.0000    0.0000   -0.0000    0.0000   -0.0000   -0.0000    0.0000    0.0000    0.0001   -0.0016
       87 O6     2py       -0.0000   -0.0000   -0.0000    0.0000   -0.0000   -0.0000    0.0000    0.0000   -0.0001   -0.0011
       88 O6     2pz        0.0000   -0.0000    0.0000    0.0000   -0.0000    0.0000    0.0000   -0.0000    0.0000   -0.0002
       89 O7     1s        -0.0000    0.0000   -0.0000    0.0000   -0.0000   -0.0000    1.0001   -0.0011    0.0000    0.0000
       90 O7     2s        -0.0000    0.0000    0.0000    0.0000   -0.0000    0.0000    0.0013    0.0001   -0.0000   -0.0000
       91 O7     2px        0.0000    0.0000    0.0000   -0.0000    0.0000    0.0000    0.0001   -0.0000   -0.0000   -0.0000
       92 O7     2py        0.0000    0.0000   -0.0000    0.0000   -0.0000   -0.0000   -0.0000    0.0000    0.0000    0.0000
       93 O7     2pz        0.0000   -0.0000   -0.0000   -0.0000    0.0000    0.0000   -0.0014   -0.0000    0.0000    0.0000
       94 O8     1s        -0.0000   -0.0000   -0.0000    0.0000   -0.0000   -0.0000    0.0011    1.0001    0.0000    0.0000
       95 O8     2s        -0.0000    0.0000   -0.0000    0.0000    0.0000    0.0000    0.0001    0.0014    0.0000    0.0000
       96 O8     2px        0.0000   -0.0000   -0.0000   -0.0000    0.0000    0.0000   -0.0000    0.0000   -0.0000   -0.0000
       97 O8     2py        0.0000   -0.0000    0.0000   -0.0000   -0.0000   -0.0000   -0.0000   -0.0001    0.0000    0.0000
       98 O8     2pz       -0.0000   -0.0000   -0.0000    0.0000   -0.0000   -0.0000    0.0000    0.0014   -0.0000   -0.0000
       99 H9     1s         0.0000   -0.0000    0.0000    0.0000   -0.0000   -0.0000    0.0000    0.0000   -0.0000   -0.0000
      100 H10    1s         0.0000   -0.0000   -0.0000    0.0000   -0.0000   -0.0000    0.0000    0.0001    0.0000    0.0000
      101 H11    1s        -0.0000    0.0000    0.0000    0.0000   -0.0000   -0.0000    0.0000    0.0000   -0.0000   -0.0000
      102 O12    1s        -0.0000   -0.0000    0.0000    0.0000    0.0543    0.9986    0.0000    0.0000   -0.0000   -0.0000
      103 O12    2s        -0.0000   -0.0000    0.0000    0.0000   -0.0005    0.0002    0.0000    0.0000   -0.0000   -0.0000
      104 O12    2px        0.0000    0.0000   -0.0000   -0.0000   -0.0002    0.0008    0.0000    0.0000    0.0000   -0.0000
      105 O12    2py        0.0000    0.0000    0.0000   -0.0000   -0.0001    0.0013   -0.0000   -0.0000    0.0000    0.0000
      106 O12    2pz        0.0000    0.0000   -0.0000   -0.0000   -0.0000    0.0001    0.0000   -0.0000   -0.0000    0.0000
 
          Orbital           31        32        33        34        35        36        37        38        39        40    
          Energy          -16.1473  -16.1378  -16.1373  -16.1219  -16.1170  -16.1077  -16.1069  -13.3761  -11.3355   -9.2825
          Occ. No.          2.0000    2.0000    2.0000    2.0000    2.0000    2.0000    2.0000    2.0000    2.0000    2.0000
 
        1 C1     1s         0.0000    0.0000   -0.0000    0.0000    0.0000   -0.0000   -0.0000   -0.0000    1.0003    0.0000
        2 C1     2s         0.0000    0.0000   -0.0000    0.0000    0.0000   -0.0000   -0.0000   -0.0000    0.0014    0.0000
        3 C1     2px       -0.0000   -0.0000   -0.0000   -0.0000    0.0000   -0.0000   -0.0000   -0.0000   -0.0000   -0.0000
        4 C1     2py       -0.0000   -0.0000    0.0000    0.0000    0.0000    0.0000    0.0000    0.0000    0.0000    0.0000
        5 C1     2pz        0.0000   -0.0000   -0.0000   -0.0000    0.0000    0.0000   -0.0000   -0.0000    0.0002   -0.0000
        6 S2     1s         0.0000   -0.0000   -0.0000   -0.0000    0.0000   -0.0000   -0.0000   -0.0000   -0.0000   -0.0000
        7 S2     2s        -0.0000   -0.0000   -0.0000   -0.0000    0.0000   -0.0000   -0.0000   -0.0000   -0.0002    0.0030
        8 S2     3s        -0.0000   -0.0000   -0.0000   -0.0000   -0.0000    0.0000   -0.0000   -0.0000   -0.0007   -0.0001
        9 S2     2px       -0.0000   -0.0000   -0.0000   -0.0000   -0.0000    0.0000   -0.0000   -0.0000    0.0000    0.0000
       10 S2     3px       -0.0000   -0.0000    0.0000    0.0000   -0.0000    0.0000   -0.0000    0.0000    0.0003    0.0000
       11 S2     2py       -0.0000   -0.0000   -0.0000    0.0000    0.0000    0.0000    0.0000    0.0000   -0.0000   -0.0000
       12 S2     3py        0.0000   -0.0000   -0.0000   -0.0000    0.0000    0.0000    0.0000   -0.0000   -0.0002   -0.0000
       13 S2     2pz       -0.0000   -0.0000   -0.0000    0.0000   -0.0000   -0.0000   -0.0000   -0.0000    0.0001   -0.0000
       14 S2     3pz        0.0000   -0.0000   -0.0000    0.0000   -0.0000   -0.0000   -0.0000   -0.0000    0.0005   -0.0001
       15 O3     1s        -0.0000   -0.0000   -0.0000   -0.0000    0.0000    0.0000    0.0000    0.0000    0.0000   -0.0000
       16 O3     2s        -0.0000   -0.0000   -0.0000   -0.0000    0.0000    0.0000    0.0000    0.0000   -0.0000   -0.0002
       17 O3     2px       -0.0000   -0.0000   -0.0000   -0.0000    0.0000    0.0000    0.0000    0.0001    0.0001   -0.0001
       18 O3     2py        0.0000    0.0000    0.0000    0.0000    0.0000    0.0000    0.0000    0.0000   -0.0001    0.0000
       19 O3     2pz        0.0000    0.0000   -0.0000    0.0000    0.0000    0.0000    0.0000    0.0000    0.0001   -0.0000
       20 NP4    1s         0.0000    0.0000    0.0000    0.0000   -0.0000    0.0000    0.0000    0.0000   -0.0000   -0.0000
       21 NP4    2s         0.0000    0.0000    0.0000    0.0000   -0.0000   -0.0000   -0.0000   -0.0000   -0.0000   -0.0000
       22 NP4    3s        -0.0000   -0.0000   -0.0000   -0.0000    0.0000   -0.0000   -0.0000   -0.0000   -0.0000   -0.0000
       23 NP4    4s         0.0000   -0.0000   -0.0000   -0.0000    0.0000   -0.0000   -0.0000    0.0001   -0.0000    0.0000
       24 NP4    5s        -0.0000   -0.0000    0.0000    0.0000   -0.0000    0.0000   -0.0000    1.0000   -0.0000    0.0006
       25 NP4    6s        -0.0000    0.0000   -0.0000    0.0000   -0.0000    0.0000    0.0000   -0.0013   -0.0001   -0.0003
       26 NP4    7s         0.0000    0.0000    0.0000    0.0000   -0.0000   -0.0000    0.0000   -0.0002   -0.0003    0.0001
       27 NP4    2px        0.0000   -0.0000   -0.0000   -0.0000    0.0000    0.0000    0.0000   -0.0000    0.0000    0.0000
       28 NP4    3px        0.0000    0.0000   -0.0000   -0.0000   -0.0000    0.0000    0.0000    0.0000    0.0000    0.0000
       29 NP4    4px        0.0000    0.0002   -0.0000   -0.0000   -0.0000    0.0003    0.0005   -0.0000    0.0000   -0.0001
       30 NP4    5px       -0.0000   -0.0003   -0.0000    0.0000   -0.0000   -0.0005   -0.0007    0.0005    0.0000   -0.6385
       31 NP4    6px        0.0000    0.0001    0.0000   -0.0000   -0.0000    0.0001    0.0001    0.0000    0.0001    0.0015
       32 NP4    7px       -0.0000   -0.0001   -0.0000   -0.0000    0.0000   -0.0000   -0.0001   -0.0001    0.0003   -0.0008
       33 NP4    2py        0.0000    0.0000    0.0000   -0.0000   -0.0000    0.0000   -0.0000    0.0000   -0.0000   -0.0000
       34 NP4    3py        0.0000    0.0000   -0.0000   -0.0000    0.0000    0.0000   -0.0000   -0.0000   -0.0000   -0.0000
       35 NP4    4py        0.0000    0.0000   -0.0002    0.0000    0.0000    0.0005   -0.0003    0.0000   -0.0000    0.0001
       36 NP4    5py       -0.0000   -0.0001    0.0003   -0.0000   -0.0000   -0.0007    0.0005   -0.0003   -0.0000    0.7692
       37 NP4    6py        0.0000    0.0000   -0.0001    0.0000    0.0000    0.0001   -0.0001   -0.0000   -0.0001   -0.0017
       38 NP4    7py       -0.0000   -0.0000    0.0001    0.0000   -0.0000   -0.0001    0.0000    0.0001   -0.0002    0.0009
       39 NP4    2pz        0.0000    0.0000    0.0000    0.0000   -0.0000    0.0000    0.0000   -0.0000    0.0000   -0.0000
       40 NP4    3pz        0.0000    0.0000    0.0000    0.0001   -0.0000    0.0000    0.0000    0.0000    0.0000   -0.0000
       41 NP4    4pz        0.0000    0.0000   -0.0000    0.0006   -0.0000    0.0000    0.0000   -0.0000    0.0000    0.0000
       42 NP4    5pz       -0.0000   -0.0000   -0.0000   -0.0012    0.0001   -0.0000   -0.0000    0.0000    0.0000    0.0239
       43 NP4    6pz        0.0000    0.0000   -0.0000    0.0002   -0.0000    0.0000    0.0000   -0.0000    0.0000   -0.0001
       44 NP4    7pz       -0.0000   -0.0000   -0.0000   -0.0002    0.0000   -0.0000   -0.0000   -0.0000    0.0002   -0.0000
       45 NP4    3d2-       0.0000    0.0000    0.0000    0.0000    0.0000   -0.0000    0.0000   -0.0000    0.0000    0.0000
       46 NP4    4d2-       0.0000   -0.0000   -0.0000    0.0000    0.0000   -0.0000    0.0000   -0.0000    0.0000   -0.0000
       47 NP4    5d2-       0.0000    0.0000    0.0000   -0.0000    0.0000    0.0000    0.0000    0.0000    0.0000    0.0007
       48 NP4    6d2-      -0.0000    0.0000   -0.0000   -0.0000   -0.0000   -0.0000   -0.0000    0.0001    0.0001    0.0001
       49 NP4    3d1-      -0.0000   -0.0000    0.0000    0.0000   -0.0000   -0.0000    0.0000   -0.0000    0.0000   -0.0000
       50 NP4    4d1-       0.0000    0.0000    0.0000    0.0000    0.0000   -0.0000    0.0000   -0.0000    0.0000    0.0000
       51 NP4    5d1-       0.0000   -0.0000   -0.0000    0.0000   -0.0000    0.0000   -0.0000    0.0001    0.0000   -0.0000
       52 NP4    6d1-      -0.0000    0.0000   -0.0000   -0.0000    0.0000   -0.0000    0.0000   -0.0000    0.0000   -0.0000
       53 NP4    3d0        0.0000    0.0000    0.0000   -0.0000    0.0000    0.0000    0.0000    0.0000   -0.0000   -0.0000
       54 NP4    4d0        0.0000    0.0000    0.0000   -0.0000    0.0000    0.0000   -0.0000    0.0004   -0.0000   -0.0000
       55 NP4    5d0        0.0000    0.0000    0.0000    0.0000   -0.0000    0.0000    0.0000   -0.0018   -0.0000    0.0003
       56 NP4    6d0       -0.0000   -0.0000   -0.0000    0.0000   -0.0000   -0.0000   -0.0000    0.0006   -0.0000    0.0001
       57 NP4    3d1+       0.0000   -0.0000    0.0000   -0.0000    0.0000   -0.0000   -0.0000   -0.0000   -0.0000   -0.0000
       58 NP4    4d1+      -0.0000   -0.0000   -0.0000   -0.0000   -0.0000   -0.0000   -0.0000   -0.0000   -0.0000   -0.0000
       59 NP4    5d1+       0.0000    0.0000    0.0000   -0.0000    0.0000    0.0000   -0.0000   -0.0000   -0.0000    0.0000
       60 NP4    6d1+      -0.0000    0.0000    0.0000    0.0000   -0.0000   -0.0000   -0.0000    0.0000   -0.0001    0.0000
       61 NP4    3d2+      -0.0000    0.0000   -0.0000   -0.0000    0.0000   -0.0000   -0.0000    0.0000   -0.0000   -0.0000
       62 NP4    4d2+      -0.0000   -0.0000    0.0000    0.0000    0.0000    0.0000   -0.0000    0.0000   -0.0000    0.0000
       63 NP4    5d2+      -0.0000    0.0000   -0.0000    0.0000    0.0000   -0.0000   -0.0000   -0.0000   -0.0000   -0.0001
[...]
 ###############################################################################
 ###                                                                         ###
 ###                                                                         ###
 ###    RunFile label ipCff                                                  ###
 ###    was used       49 times                                              ###
 ###                                                                         ###
 ###                                                                         ###
 ###############################################################################
 ###############################################################################
 ###############################################################################
 ###############################################################################
 ###                                                                         ###
 ###                                                                         ###
 ###    RunFile label ipExp                                                  ###
 ###    was used       49 times                                              ###
 ###                                                                         ###
 ###                                                                         ###
 ###############################################################################
 ###############################################################################
 ###############################################################################
 ###############################################################################
 ###                                                                         ###
 ###                                                                         ###
 ###    RunFile label IndS                                                   ###
 ###    was used       49 times                                              ###
 ###                                                                         ###
 ###                                                                         ###
 ###############################################################################
 ###############################################################################
 ###############################################################################
 ###############################################################################
 ###                                                                         ###
 ###                                                                         ###
 ###    RunFile label ip_Occ                                                 ###
 ###    was used       49 times                                              ###
 ###                                                                         ###
 ###                                                                         ###
 ###############################################################################
 ###############################################################################
 ###############################################################################
 ###############################################################################
 ###                                                                         ###
 ###                                                                         ###
 ###    RunFile label ipAkl                                                  ###
 ###    was used       49 times                                              ###
 ###                                                                         ###
 ###                                                                         ###
 ###############################################################################
 ###############################################################################
 ###############################################################################
 ###############################################################################
 ###                                                                         ###
 ###                                                                         ###
 ###    RunFile label ipBk                                                   ###
 ###    was used       49 times                                              ###
 ###                                                                         ###
 ###                                                                         ###
 ###############################################################################
 ###############################################################################
 ###############################################################################
 ###############################################################################
 ###                                                                         ###
 ###                                                                         ###
 ###    RunFile label nOpt                                                   ###
 ###    was used       49 times                                              ###
 ###                                                                         ###
 ###                                                                         ###
 ###############################################################################
 ###############################################################################
 ###############################################################################
 ###############################################################################
 ###                                                                         ###
 ###                                                                         ###
 ###    RunFile label Prjct                                                  ###
 ###    was used       49 times                                              ###
 ###                                                                         ###
 ###                                                                         ###
 ###############################################################################
 ###############################################################################
 ###############################################################################
 ###############################################################################
 ###                                                                         ###
 ###                                                                         ###
 ###    RunFile label Transf                                                 ###
 ###    was used       49 times                                              ###
 ###                                                                         ###
 ###                                                                         ###
 ###############################################################################
 ###############################################################################
 ###############################################################################
 ###############################################################################
 ###                                                                         ###
 ###                                                                         ###
 ###    RunFile label iCoSet                                                 ###
 ###    was used       49 times                                              ###
 ###                                                                         ###
 ###                                                                         ###
 ###############################################################################
 ###############################################################################
 ###############################################################################
 ###############################################################################
 ###                                                                         ###
 ###                                                                         ###
 ###    RunFile label nBasis_Cntrct                                          ###
 ###    was used       49 times                                              ###
 ###                                                                         ###
 ###                                                                         ###
 ###############################################################################
 ###############################################################################
 ###############################################################################
 ###############################################################################
 ###                                                                         ###
 ###                                                                         ###
 ###    RunFile label ipCff_Cntrct                                           ###
 ###    was used       49 times                                              ###
 ###                                                                         ###
 ###                                                                         ###
 ###############################################################################
 ###############################################################################
 ###############################################################################
 ###############################################################################
 ###                                                                         ###
 ###                                                                         ###
 ###    RunFile label ipCff_Prim                                             ###
 ###    was used       49 times                                              ###
 ###                                                                         ###
 ###                                                                         ###
 ###############################################################################
 ###############################################################################
 ###############################################################################
 ###############################################################################
 ###                                                                         ###
 ###                                                                         ###
 ###    RunFile label ipFockOp                                               ###
 ###    was used       49 times                                              ###
 ###                                                                         ###
 ###                                                                         ###
 ###############################################################################
 ###############################################################################
 ###############################################################################
 ###############################################################################
 ###                                                                         ###
 ###                                                                         ###
 ###    RunFile label IrrCmp                                                 ###
 ###    was used       49 times                                              ###
 ###                                                                         ###
 ###                                                                         ###
 ###############################################################################
 ###############################################################################
 ###############################################################################
 ###############################################################################
 ###                                                                         ###
 ###                                                                         ###
 ###    RunFile label iAOtSO                                                 ###
 ###    was used       49 times                                              ###
 ###                                                                         ###
 ###                                                                         ###
 ###############################################################################
 ###############################################################################
 ###############################################################################
 ###############################################################################
 ###                                                                         ###
 ###                                                                         ###
 ###    RunFile label iSOInf                                                 ###
 ###    was used       49 times                                              ###
 ###                                                                         ###
 ###                                                                         ###
 ###############################################################################
 ###############################################################################
 ###############################################################################
 ###############################################################################
 ###                                                                         ###
 ###                                                                         ###
 ###    RunFile label FragShell                                              ###
 ###    was used       49 times                                              ###
 ###                                                                         ###
 ###                                                                         ###
 ###############################################################################
 ###############################################################################
 ###############################################################################
 ###############################################################################
 ###                                                                         ###
 ###                                                                         ###
 ###    RunFile label AuxShell                                               ###
 ###    was used       49 times                                              ###
 ###                                                                         ###
 ###                                                                         ###
 ###############################################################################
 ###############################################################################
--- Stop Module: rasscf at Tue Nov 13 19:50:43 2018 /rc=_RC_ALL_IS_WELL_ ---
*** files: NpO2_CH3SO2_O2-m1-doublet.casscf.MB.LprOrb NpO2_CH3SO2_O2-m1-doublet.casscf.MB.rasscf.molden.18 NpO2_CH3SO2_O2-m1-doublet.casscf.MB.rasscf.molden.8
           NpO2_CH3SO2_O2-m1-doublet.casscf.MB.rasscf.molden.1 NpO2_CH3SO2_O2-m1-doublet.casscf.MB.rasscf.molden.12 NpO2_CH3SO2_O2-m1-doublet.casscf.MB.rasscf.molden.4
           NpO2_CH3SO2_O2-m1-doublet.casscf.MB.rasscf.molden.6 NpO2_CH3SO2_O2-m1-doublet.casscf.MB.rasscf.molden.20 NpO2_CH3SO2_O2-m1-doublet.casscf.MB.rasscf.molden.5
           NpO2_CH3SO2_O2-m1-doublet.casscf.MB.rasscf.molden.23 NpO2_CH3SO2_O2-m1-doublet.casscf.MB.rasscf.molden.22 NpO2_CH3SO2_O2-m1-doublet.casscf.MB.rasscf.molden.9
           NpO2_CH3SO2_O2-m1-doublet.casscf.MB.rasscf.molden.11 NpO2_CH3SO2_O2-m1-doublet.casscf.MB.rasscf.molden.15 NpO2_CH3SO2_O2-m1-doublet.casscf.MB.rasscf.molden
           NpO2_CH3SO2_O2-m1-doublet.casscf.MB.rasscf.molden.3 NpO2_CH3SO2_O2-m1-doublet.casscf.MB.rasscf.molden.17 NpO2_CH3SO2_O2-m1-doublet.casscf.MB.rasscf.molden.16
           NpO2_CH3SO2_O2-m1-doublet.casscf.MB.rasscf.molden.13 NpO2_CH3SO2_O2-m1-doublet.casscf.MB.rasscf.molden.10 NpO2_CH3SO2_O2-m1-doublet.casscf.MB.rasscf.molden.21
           NpO2_CH3SO2_O2-m1-doublet.casscf.MB.rasscf.molden.19 NpO2_CH3SO2_O2-m1-doublet.casscf.MB.rasscf.molden.14 NpO2_CH3SO2_O2-m1-doublet.casscf.MB.rasscf.molden.2
           NpO2_CH3SO2_O2-m1-doublet.casscf.MB.rasscf.molden.7 NpO2_CH3SO2_O2-m1-doublet.casscf.MB.rasscf.molden.24 NpO2_CH3SO2_O2-m1-doublet.casscf.MB.LoProp.molden
           NpO2_CH3SO2_O2-m1-doublet.casscf.MB.RasOrb.14 NpO2_CH3SO2_O2-m1-doublet.casscf.MB.RasOrb.5 NpO2_CH3SO2_O2-m1-doublet.casscf.MB.RasOrb.3
           NpO2_CH3SO2_O2-m1-doublet.casscf.MB.RasOrb.22 NpO2_CH3SO2_O2-m1-doublet.casscf.MB.RasOrb NpO2_CH3SO2_O2-m1-doublet.casscf.MB.RasOrb.10
           NpO2_CH3SO2_O2-m1-doublet.casscf.MB.RasOrb.19 NpO2_CH3SO2_O2-m1-doublet.casscf.MB.RasOrb.15 NpO2_CH3SO2_O2-m1-doublet.casscf.MB.RasOrb.9
           NpO2_CH3SO2_O2-m1-doublet.casscf.MB.RasOrb.6 NpO2_CH3SO2_O2-m1-doublet.casscf.MB.RasOrb.17 NpO2_CH3SO2_O2-m1-doublet.casscf.MB.RasOrb.24
           NpO2_CH3SO2_O2-m1-doublet.casscf.MB.RasOrb.7 NpO2_CH3SO2_O2-m1-doublet.casscf.MB.RasOrb.21 NpO2_CH3SO2_O2-m1-doublet.casscf.MB.RasOrb.2
           NpO2_CH3SO2_O2-m1-doublet.casscf.MB.RasOrb.4 NpO2_CH3SO2_O2-m1-doublet.casscf.MB.RasOrb.18 NpO2_CH3SO2_O2-m1-doublet.casscf.MB.RasOrb.23
           NpO2_CH3SO2_O2-m1-doublet.casscf.MB.RasOrb.8 NpO2_CH3SO2_O2-m1-doublet.casscf.MB.RasOrb.11 NpO2_CH3SO2_O2-m1-doublet.casscf.MB.RasOrb.13
           NpO2_CH3SO2_O2-m1-doublet.casscf.MB.RasOrb.16 NpO2_CH3SO2_O2-m1-doublet.casscf.MB.RasOrb.12 NpO2_CH3SO2_O2-m1-doublet.casscf.MB.RasOrb.1
           NpO2_CH3SO2_O2-m1-doublet.casscf.MB.RasOrb.20 NpO2_CH3SO2_O2-m1-doublet.casscf.MB.rasscf.h5 NpO2_CH3SO2_O2-m1-doublet.casscf.MB.SpdOrb.10
           NpO2_CH3SO2_O2-m1-doublet.casscf.MB.SpdOrb.11 NpO2_CH3SO2_O2-m1-doublet.casscf.MB.SpdOrb.5 NpO2_CH3SO2_O2-m1-doublet.casscf.MB.SpdOrb.22
           NpO2_CH3SO2_O2-m1-doublet.casscf.MB.SpdOrb.16 NpO2_CH3SO2_O2-m1-doublet.casscf.MB.SpdOrb.21 NpO2_CH3SO2_O2-m1-doublet.casscf.MB.SpdOrb.23
           NpO2_CH3SO2_O2-m1-doublet.casscf.MB.SpdOrb.18 NpO2_CH3SO2_O2-m1-doublet.casscf.MB.SpdOrb.3 NpO2_CH3SO2_O2-m1-doublet.casscf.MB.SpdOrb.1
           NpO2_CH3SO2_O2-m1-doublet.casscf.MB.SpdOrb.9 NpO2_CH3SO2_O2-m1-doublet.casscf.MB.SpdOrb.12 NpO2_CH3SO2_O2-m1-doublet.casscf.MB.SpdOrb.2
           NpO2_CH3SO2_O2-m1-doublet.casscf.MB.SpdOrb.15 NpO2_CH3SO2_O2-m1-doublet.casscf.MB.SpdOrb.14 NpO2_CH3SO2_O2-m1-doublet.casscf.MB.SpdOrb.19
           NpO2_CH3SO2_O2-m1-doublet.casscf.MB.SpdOrb.20 NpO2_CH3SO2_O2-m1-doublet.casscf.MB.SpdOrb.13 NpO2_CH3SO2_O2-m1-doublet.casscf.MB.SpdOrb.24
           NpO2_CH3SO2_O2-m1-doublet.casscf.MB.SpdOrb.4 NpO2_CH3SO2_O2-m1-doublet.casscf.MB.SpdOrb.8 NpO2_CH3SO2_O2-m1-doublet.casscf.MB.SpdOrb.6
           NpO2_CH3SO2_O2-m1-doublet.casscf.MB.SpdOrb.17 NpO2_CH3SO2_O2-m1-doublet.casscf.MB.SpdOrb.7 xmldump
    saved to directory /home/vallet/John-methylsulfonyl/NpO2_CH3SO2_O2-m1/doublet-geom/optg-freq-pbe0-superoxo/SO-XMS
--- Module rasscf spent 36 seconds ---

>>> COPY NpO2_CH3SO2_O2-m1-doublet.casscf.MB.RasOrb /home/vallet/John-methylsulfonyl/NpO2_CH3SO2_O2-m1/doublet-geom/optg-freq-pbe0-superoxo/SO-XMS/NpO2_CH3SO2_O2-m1-doublet.casscf.MB.RasOrb_doublets

>>> COPY NpO2_CH3SO2_O2-m1-doublet.casscf.MB.rasscf.molden /home/vallet/John-methylsulfonyl/NpO2_CH3SO2_O2-m1/doublet-geom/optg-freq-pbe0-superoxo/SO-XMS/NpO2_CH3SO2_O2-m1-doublet.casscf.MB.rasscf_doublets.molden

    Timing: Wall=488.05 User=3343.11 System=98.45
