 operating system is UNIX !

 force (u-0-11.local) : TURBOMOLE V7.2 ( 21454 ) 4 Oct 2017 at 12:24:43
 Copyright (C) 2017 TURBOMOLE GmbH, Karlsruhe


    2018-01-28 09:20:46.348 



                             T U R B O M O L E   

                          a o f o r c e - program

                        using direct algorithms for

                       SCF level calculations of
                         * harmonic force constants
                         * hyperpolarizabilities
                         * IR and RAMAN intensities
                         * VCD intensities

                       DFT level calculations of
                         * harmonic force constants
                         * IR intensities
                                                   
       Stephan Boecker, Peter Deglmann, Filipp Furche and Marco Haeser
                          Quantum Chemistry Group
                          Universitaet  Karlsruhe
                                   Germany

 
 
 
 
     References :
 
       RI-J implementation:
         Peter Deglmann, Klaus May, Filipp Furche, Reinhart Ahlrichs
                 Chem. Phys. Lett. 384:103 (2004)
 
       Efficiency, technical details:
         Peter Deglmann, Filipp Furche, Reinhart Ahlrichs
                 Chem. Phys. Lett. 362:511 (2002)
 
       Search of lowest eigenvalues by iterative diagonalization:
         Peter Deglmann, Filipp Furche
                 J. Chem. Phys. 117:9535 (2002)
 
       Vibrational circular dichroism implementation:
        Kevin Reiter, Michael Kuehn, Florian Weigend
                 J. Chem. Phys. 146:054102 (2017)  
 
 


              +--------------------------------------------------+
              | Atomic coordinate, charge and isotop information |
              +--------------------------------------------------+

                    atomic coordinates            atom    charge  isotop
          0.72662896    7.96531886   -0.10878993    c      6.000     0
          2.76280358    5.19711341   -0.16051139    s     16.000     0
          1.91710283    3.75531116    2.19636772    o      8.000     0
          0.00286969    0.00064122   -0.00357047    pu    94.000     0
         -1.91194892   -3.75746110   -2.19823614    o      8.000     0
         -2.75990724   -5.19350235    0.16125964    s     16.000     0
         -0.72721545   -7.96427721    0.11535238    c      6.000     0
          1.73904571    3.71167641   -2.41772297    o      8.000     0
         -1.73451163   -3.70509865    2.41585275    o      8.000     0
          2.99016443   -1.45368956   -0.11071531    o      8.000     0
         -2.98468809    1.45465193    0.10196172    o      8.000     0
         -1.85037445  -10.32178747    0.25939733    c      6.000     0
         -0.35762406  -12.48358659    0.23603097    c      6.000     0
          2.24671542  -12.25931737    0.06670603    c      6.000     0
          3.35943963   -9.88047202   -0.07867495    c      6.000     0
          1.88118541   -7.72022469   -0.05514119    c      6.000     0
         -3.89271718  -10.46041080    0.38992896    h      1.000     0
         -1.22727410  -14.33532093    0.34931607    h      1.000     0
          3.41917012  -13.93946990    0.04710846    h      1.000     0
          5.39718797   -9.71337770   -0.21112029    h      1.000     0
          2.71452586   -5.85013971   -0.16377047    h      1.000     0
          1.84859459   10.32546260   -0.21394631    c      6.000     0
          0.35312846   12.48532831   -0.18350187    c      6.000     0
         -2.25275862   12.25648658   -0.04739829    c      6.000     0
         -3.36428528    9.87500685    0.05848968    c      6.000     0
         -1.88331572    7.71672056    0.02865783    c      6.000     0
          3.89211401   10.46769235   -0.31986573    h      1.000     0
          1.22185788   14.33912952   -0.26582974    h      1.000     0
         -3.42737627   13.93507098   -0.02321584    h      1.000     0
         -5.40325593    9.70422834    0.16483893    h      1.000     0
         -2.71565805    5.84473817    0.10814836    h      1.000     0
 
       center of nuclear mass  :    0.00138859    0.00051295   -0.00007861
       center of nuclear charge:    0.00115896    0.00047369    0.00044937

              +--------------------------------------------------+
              |               basis set information              |
              +--------------------------------------------------+

              we will work with the 1s 3p 5d 7f 9g ... basis set
              ...i.e. with spherical basis functions...

   type   atoms  prim   cont   basis
   ---------------------------------------------------------------------------
    c       12     66     46   aug-cc-pVTZ   [5s4p3d2f|19s6p3d2f]
    s        2    122     50   aug-cc-pVTZ   [6s5p3d2f|42s17p3d2f]
    o        6     66     46   aug-cc-pVTZ   [5s4p3d2f|19s6p3d2f]
    pu       1    213    117   ecp-60-SVP(6g)   [10s9p5d4f3g|14s13p10d8f6g]
    h       10     25     23   aug-cc-pVTZ   [4s3p2d|6s3p2d]
   ---------------------------------------------------------------------------
   total:   31   1895   1275
   ---------------------------------------------------------------------------

   total number of primitive shells          :  186
   total number of contracted shells         :  405
   total number of cartesian basis functions : 1510
   total number of SCF-basis functions       : 1275


 symmetry group of the molecule :   c1 

 the group has the following generators :
   c1(z)

    1 symmetry operations found

 there are 1 real representations :   a   

 maximum number of shells which are related by symmetry :  1


 determining totally symmetric integral contributions 
    - equivalent to irreducible tensor elements - 
 which can be formed within each triple of representations :

             representation triple      contributions

              a     a     a               1

 reading cartesian hessian from $hessian,
 file=<hessian>


 actual cartesian coordinates & gradients will be read from $grad 

            ----------------------------
            actual cartesian coordinates
            ----------------------------
    1 c       0.72663036540571      7.96527712358890     -0.10886374992903
    2 s       2.76284122549782      5.19711033094212     -0.16064820410288
    3 o       1.91723692146061      3.75529898175662      2.19625953109953
    4 pu      0.00284249750037      0.00065922499606     -0.00352819771979
    5 o      -1.91203880771759     -3.75741238084658     -2.19813124627900
    6 s      -2.75992428522141     -5.19348881674751      0.16137172670820
    7 c      -0.72722570422735     -7.96424775484074      0.11540158500088
    8 o       1.73904447809803      3.71164961634085     -2.41782339224919
    9 o      -1.73446483588708     -3.70509974536684      2.41594410537832
   10 o       2.99011508872209     -1.45368396774683     -0.11074797728399
   11 o      -2.98470565624352      1.45467925948574      0.10210234442996
   12 c      -1.85038067943357    -10.32176651798956      0.25933799482779
   13 c      -0.35762311838681    -12.48355932690241      0.23592791787648
   14 c       2.24671882887800    -12.25927306289245      0.06667241788947
   15 c       3.35943777031542     -9.88041848745098     -0.07857028803754
   16 c       1.88117674167271     -7.72017272496017     -0.05499632613423
   17 h      -3.89272245332111    -10.46040612734743      0.38987178172108
   18 h      -1.22727113606534    -14.33529808675167      0.34915101240848
   19 h       3.41917731070227    -13.93942157691668      0.04700471396879
   20 h       5.39718333075764     -9.71331593021850     -0.21100357536464
   21 h       2.71452378878522     -5.85010018175831     -0.16360938793382
   22 c       1.84859540737133     10.32542516146123     -0.21396258398910
   23 c       0.35312908336557     12.48529145445836     -0.18345272654079
   24 c      -2.25275757718929     12.25644122918655     -0.04736722562687
   25 c      -3.36428381726712      9.87495818933195      0.05840238062743
   26 c      -1.88331284886754      7.71667361521427      0.02854843372041
   27 h       3.89211233645537     10.46766006553898     -0.31989613830678
   28 h       1.22186133719149     14.33909402236841     -0.26570382478550
   29 h      -3.42737440371142     13.93502374371630     -0.02307339602822
   30 h      -5.40325668864649      9.70417503216203      0.16472795367901
   31 h      -2.71566093280149      5.84468884060046      0.10806029068091

              --------------------------
              actual cartesian gradients
              --------------------------
    1 c      -0.00000776339339     -0.00000687221201     -0.00000071275078
    2 s      -0.00000277886853      0.00000716224214     -0.00000700136441
    3 o       0.00000817729337     -0.00000831527040     -0.00000348525891
    4 pu     -0.00000466831420     -0.00000613594349     -0.00000216942303
    5 o       0.00000035020363      0.00000597796361      0.00000075436150
    6 s      -0.00000359714598     -0.00000382859088      0.00000340229043
    7 c      -0.00000063653904     -0.00000683142989     -0.00000593648800
    8 o       0.00000512817970      0.00000266485272     -0.00000115359287
    9 o       0.00000846419768     -0.00000330775188     -0.00000162387845
   10 o      -0.00001261429003      0.00000669735388     -0.00000722666891
   11 o       0.00000560088802      0.00000442503481      0.00001434823307
   12 c       0.00000069771504      0.00000018782100     -0.00002334948855
   13 c       0.00000095584852     -0.00000163050797     -0.00001179193017
   14 c       0.00000166927802      0.00000256886522     -0.00000530349233
   15 c       0.00000375775226     -0.00000096101828      0.00001457885653
   16 c      -0.00000500059375      0.00002121999588      0.00002450367199
   17 h      -0.00000082785595     -0.00000307334250      0.00000211427778
   18 h      -0.00000087655030     -0.00000111762556     -0.00001253911787
   19 h      -0.00000039446437      0.00000052828861     -0.00001166543998
   20 h      -0.00000423857987      0.00000021775843     -0.00000070805484
   21 h      -0.00000109697369     -0.00000997001851      0.00000441088184
   22 c       0.00000529976220     -0.00000337704017      0.00001591121568
   23 c      -0.00000074217392      0.00000426150035      0.00000946138831
   24 c       0.00000146249158     -0.00000217947005      0.00001421514037
   25 c       0.00000272795782     -0.00000000641926     -0.00001836238509
   26 c       0.00000281126632      0.00000816704336     -0.00001817404955
   27 h      -0.00000140598141      0.00000042317096     -0.00000007431283
   28 h       0.00000112861740     -0.00000012857966      0.00000503547635
   29 h       0.00000210835254     -0.00000056196976      0.00002163879307
   30 h      -0.00000154055724     -0.00000003539457     -0.00000821441364
   31 h      -0.00000215754851     -0.00000616941178      0.00000911752249

 dipole moment read from <control>

                -----------------------
                permanent dipole moment
                -----------------------
             x              y             z
         -0.0070839     -0.0063872     -0.0000748      (debyes)

 dipole derivatives read from <dipgrad>

        ----------------------------------------------------
        cartesian dipole derivative matrix (debyes/angstrom)
        ----------------------------------------------------

  atom       1 c                              2 s 
            x          y          z          x          y          z
 
  x     -1.386081   1.123007   0.022562   3.637426   0.274935   0.093609
  y      0.194353  -1.084409   0.002966  -1.215718  10.255603  -0.001488
  z      0.025932  -0.011406  -0.477183   0.119315  -0.060501   6.015104

  atom       3 o                              4 pu
            x          y          z          x          y          z
 
  x     -2.306384  -2.834909   0.927031  13.237302  -0.694074  -0.315450
  y     -0.398151  -7.992144   1.247195  -1.740658  19.558522  -0.094429
  z     -0.402607   2.014874  -4.494257  -0.316310  -0.115862   4.878257

  atom       5 o                              6 s 
            x          y          z          x          y          z
 
  x     -2.304521  -2.839100   0.932023   3.636312   0.283712   0.097693
  y     -0.398737  -7.980633   1.248814  -1.210083  10.258974  -0.004247
  z     -0.402748   2.018837  -4.501335   0.134544  -0.073727   6.013767

  atom       7 c                              8 o 
            x          y          z          x          y          z
 
  x     -1.386576   1.126044   0.021747  -2.361886  -2.994680  -1.036942
  y      0.194982  -1.085533   0.005719  -0.480453  -8.061819  -1.137471
  z      0.015862   0.006898  -0.474040   0.237576  -1.723557  -4.381721

  atom       9 o                             10 o 
            x          y          z          x          y          z
 
  x     -2.365586  -3.001986  -1.035883  -6.330003   3.190552   0.156530
  y     -0.481143  -8.072741  -1.132055   2.236288  -4.712023  -0.053765
  z      0.232485  -1.718499  -4.374424   0.172131  -0.116598  -1.566759

  atom      11 o                             12 c 
            x          y          z          x          y          z
 
  x     -6.328355   3.192567   0.150044   0.281646   0.956493  -0.068569
  y      2.234142  -4.718328  -0.052076  -0.032133  -0.465320  -0.003206
  z      0.168264  -0.104920  -1.564022  -0.050004  -0.061901  -0.491149

  atom      13 c                             14 c 
            x          y          z          x          y          z
 
  x     -0.248961   0.060485  -0.032233   0.088440  -0.017896  -0.048331
  y      0.421396   0.279080  -0.060941  -0.123102  -0.034510  -0.022744
  z     -0.042594  -0.042458  -0.728708  -0.047711  -0.021250  -0.749478

  atom      15 c                             16 c 
            x          y          z          x          y          z
 
  x      0.589656   0.278147  -0.087730  -0.480843   0.360492   0.014186
  y     -0.228347  -0.288750   0.001368   0.525881  -0.854910  -0.023806
  z     -0.060642  -0.033765  -0.642534   0.008376  -0.012152  -0.196333

  atom      17 h                             18 h 
            x          y          z          x          y          z
 
  x     -0.372669  -0.286259   0.063217   0.116801  -0.349445   0.043475
  y      0.050466   0.478797   0.001163  -0.306569  -0.744059   0.059633
  z      0.056167   0.022956   0.549807   0.042563   0.066244   0.631727

  atom      19 h                             20 h 
            x          y          z          x          y          z
 
  x     -0.003629   0.505815   0.023979  -0.624615   0.146407   0.074988
  y      0.479230  -0.459622   0.002488  -0.021536   0.211806   0.013173
  z      0.024740   0.003124   0.628286   0.077556   0.005097   0.593147

  atom      21 h                             22 c 
            x          y          z          x          y          z
 
  x      0.362304  -0.060272   0.010237   0.282220   0.958259  -0.054167
  y     -0.223620   1.299628   0.014358  -0.031051  -0.463015  -0.001510
  z      0.009099   0.016652   0.481049  -0.040268  -0.050728  -0.493967

  atom      23 c                             24 c 
            x          y          z          x          y          z
 
  x     -0.249130   0.060716  -0.025748   0.089840  -0.017262  -0.040174
  y      0.421723   0.280313  -0.043603  -0.121742  -0.033833  -0.012932
  z     -0.032710  -0.027119  -0.729860  -0.039674  -0.014369  -0.748650

  atom      25 c                             26 c 
            x          y          z          x          y          z
 
  x      0.591153   0.280305  -0.068971  -0.482672   0.360455   0.011281
  y     -0.227660  -0.293634   0.003725   0.523887  -0.856650  -0.019779
  z     -0.056156  -0.022568  -0.644335   0.007679  -0.011266  -0.200175

  atom      27 h                             28 h 
            x          y          z          x          y          z
 
  x     -0.373812  -0.288301   0.051041   0.116318  -0.349296   0.033604
  y      0.049411   0.478183   0.000008  -0.306717  -0.746209   0.042408
  z      0.044713   0.017305   0.556137   0.035158   0.042563   0.647638

  atom      29 h                             30 h 
            x          y          z          x          y          z
 
  x     -0.004995   0.505771   0.021628  -0.626361   0.144647   0.060552
  y      0.479535  -0.458462  -0.002693  -0.023430   0.211981   0.008976
  z      0.021041  -0.002322   0.623884   0.063554   0.001972   0.595685

  atom      31 h 
            x          y          z
 
  x      0.363418  -0.060850   0.007388
  y     -0.229759   1.304346   0.009836
  z      0.010402   0.004139   0.479906
 
!!!!!!!!!!!!!!!!!!!!!!!!!!!!!!!!!!!!!!!!!!!!!!!!!!!!!!
!!                                                  !!
!! WARNING:                                         !!
!! geometry on $grad differs from that on $coord:   !!
!! mead absolute deviation:           0.1407E-03    !!
!!                                                  !!
!!!!!!!!!!!!!!!!!!!!!!!!!!!!!!!!!!!!!!!!!!!!!!!!!!!!!!
 difference between coordinates :

              1             2             3             4             5
 
    1     0.00000140    0.00003764    0.00013410   -0.00002719   -0.00008989
    2    -0.00004173   -0.00000308   -0.00001218    0.00001801    0.00004872
    3    -0.00007382   -0.00013682   -0.00010819    0.00004227    0.00010490

              6             7             8             9            10
 
    1    -0.00001705   -0.00001025   -0.00000123    0.00004679   -0.00004934
    2     0.00001354    0.00002945   -0.00002680   -0.00000110    0.00000560
    3     0.00011209    0.00004920   -0.00010043    0.00009135   -0.00003266

             11            12            13            14            15
 
    1    -0.00001757   -0.00000623    0.00000094    0.00000341   -0.00000186
    2     0.00002732    0.00002095    0.00002727    0.00004431    0.00005354
    3     0.00014063   -0.00005934   -0.00010305   -0.00003361    0.00010466

             16            17            18            19            20
 
    1    -0.00000867   -0.00000527    0.00000296    0.00000719   -0.00000463
    2     0.00005197    0.00000468    0.00002284    0.00004833    0.00006177
    3     0.00014487   -0.00005717   -0.00016506   -0.00010374    0.00011671

             21            22            23            24            25
 
    1    -0.00000207    0.00000082    0.00000062    0.00000104    0.00000146
    2     0.00003953   -0.00003744   -0.00003686   -0.00004536   -0.00004866
    3     0.00016108   -0.00001627    0.00004914    0.00003106   -0.00008730

             26            27            28            29            30
 
    1     0.00000287   -0.00000167    0.00000346    0.00000187   -0.00000076
    2    -0.00004694   -0.00003229   -0.00003550   -0.00004723   -0.00005331
    3    -0.00010940   -0.00003041    0.00012591    0.00014245   -0.00011098

             31
 
    1    -0.00000289
    2    -0.00004933
    3    -0.00008807

             -----------------------------------
             rotational and vibrational analysis
             -----------------------------------


            ==============================================================
            ATOMIC WEIGHTS (average over the natural occurance of isotops)
            ==============================================================
            ('*' denotes special isotop !)
              1     c                12.01115
              2     s                32.06400
              3     o                15.99940
              4     pu              244.00000
              5     o                15.99940
              6     s                32.06400
              7     c                12.01115
              8     o                15.99940
              9     o                15.99940
             10     o                15.99940
             11     o                15.99940
             12     c                12.01115
             13     c                12.01115
             14     c                12.01115
             15     c                12.01115
             16     c                12.01115
             17     h                 1.00797
             18     h                 1.00797
             19     h                 1.00797
             20     h                 1.00797
             21     h                 1.00797
             22     c                12.01115
             23     c                12.01115
             24     c                12.01115
             25     c                12.01115
             26     c                12.01115
             27     h                 1.00797
             28     h                 1.00797
             29     h                 1.00797
             30     h                 1.00797
             31     h                 1.00797

          -------------------------------------------------
          CARTESIAN FORCE CONSTANT MATRIX (hartree/bohr**2)
         (translational & rotational space projected out)
          -------------------------------------------------

   ATOM              1 c                           2 s 
                  dx        dy        dz        dx        dy        dz
   1 c     dx  0.6245603
           dy  0.0832123 0.5723110
           dz -0.0262845-0.0129254 0.1435224
   2 s     dx -0.1282143 0.0153068 0.0038436 0.3750181
           dy  0.0544774-0.0762229-0.0015776 0.1086606 0.3994263
           dz  0.0034921 0.0000358-0.0306509 0.0037285-0.0034885 0.5076179
   3 o     dx  0.0190619 0.0112637-0.0086108-0.1066309-0.0725459 0.0929815
           dy -0.0108373-0.0168229 0.0236768-0.0565875-0.1411666 0.1338885
           dz  0.0000512 0.0105800-0.0071160 0.0740335 0.1203588-0.2580062
   4 pu    dx -0.0005390 0.0002499-0.0001011-0.0024181-0.0277593 0.0012206
           dy  0.0001120 0.0008711-0.0000660-0.0179162-0.0301426 0.0012087
           dz -0.0000796-0.0000465-0.0029232 0.0011133 0.0016087 0.0224391
   5 o     dx  0.0000426-0.0001313 0.0000346 0.0003678 0.0019021-0.0004013
           dy  0.0000073-0.0002752 0.0000583 0.0009892 0.0032608-0.0008381
           dz  0.0000164 0.0000292 0.0001240 0.0001413 0.0002877-0.0009272
   6 s     dx -0.0000466 0.0000686-0.0000022-0.0001789-0.0011065 0.0000432
           dy -0.0000103 0.0002847-0.0000061-0.0011044-0.0030558 0.0000750
           dz -0.0000034-0.0000044-0.0000669 0.0000521 0.0000814 0.0005290
   7 c     dx -0.0000033 0.0000045-0.0000023-0.0000472-0.0000036-0.0000052
           dy  0.0000050-0.0000413-0.0000011 0.0000665 0.0002830-0.0000053
           dz -0.0000016 0.0000009-0.0000171-0.0000015-0.0000121-0.0000875
   8 o     dx  0.0196692 0.0105501 0.0063420-0.1200813-0.0834421-0.1017861
           dy -0.0124515-0.0174330-0.0224376-0.0685628-0.1456065-0.1311231
           dz -0.0018296-0.0113129-0.0069457-0.0833707-0.1161734-0.2396267
   9 o     dx  0.0000379-0.0001317-0.0000157 0.0003906 0.0018639 0.0002598
           dy  0.0000006-0.0002791-0.0000366 0.0010416 0.0032711 0.0006702
           dz -0.0000126-0.0000113 0.0001286-0.0002543-0.0005259-0.0009446
  10 o     dx  0.0005576 0.0006105-0.0000109-0.0042746-0.0010407 0.0000300
           dy -0.0001247-0.0005240 0.0000271 0.0019584 0.0045488-0.0001200
           dz  0.0000160-0.0000119 0.0008523-0.0000247-0.0000148-0.0042455
  11 o     dx  0.0004896 0.0003748-0.0000145 0.0002033 0.0097459-0.0002027
           dy -0.0008471-0.0002309 0.0000376 0.0011950-0.0053032-0.0000350
           dz -0.0000386-0.0000077-0.0001403-0.0001040-0.0004029-0.0022408
  12 c     dx -0.0000082 0.0000365-0.0000001-0.0001197-0.0003222 0.0000070
           dy  0.0000119-0.0000060-0.0000017 0.0000130 0.0000499 0.0000012
           dz -0.0000008-0.0000025 0.0000026 0.0000072 0.0000192-0.0000095
  13 c     dx  0.0000008-0.0000095-0.0000004-0.0000091 0.0000387 0.0000020
           dy -0.0000028-0.0000130 0.0000017 0.0000054 0.0000719-0.0000007
           dz -0.0000007-0.0000021-0.0000126 0.0000011-0.0000024-0.0000109
  14 c     dx -0.0000071 0.0000117-0.0000004-0.0000352-0.0000775 0.0000021
           dy -0.0000133-0.0000123 0.0000015 0.0000686 0.0001442-0.0000059
           dz  0.0000020-0.0000020 0.0000147-0.0000027 0.0000070 0.0000093
  15 c     dx -0.0000142-0.0000121 0.0000010 0.0000628 0.0001809-0.0000112
           dy  0.0000098-0.0000071-0.0000004-0.0000063 0.0001048-0.0000006
           dz  0.0000025 0.0000007 0.0000083-0.0000104-0.0000069-0.0000301
  16 c     dx -0.0000047 0.0000217 0.0000017-0.0000554-0.0002430 0.0000108
           dy -0.0000271 0.0000095 0.0000077 0.0000759 0.0000670-0.0000181
           dz  0.0000013-0.0000040 0.0000154 0.0000026 0.0000344-0.0000068
  17 h     dx  0.0000039-0.0000077 0.0000000 0.0000095 0.0000764 0.0000020
           dy  0.0000021 0.0000094-0.0000001-0.0000251-0.0000518 0.0000031
           dz -0.0000002 0.0000007-0.0000034 0.0000013-0.0000043 0.0000283
  18 h     dx  0.0000029-0.0000034 0.0000000 0.0000009 0.0000156 0.0000022
           dy  0.0000039-0.0000096-0.0000000 0.0000323 0.0001435-0.0000003
           dz -0.0000002 0.0000011-0.0000031-0.0000010-0.0000061 0.0000216
  19 h     dx  0.0000007 0.0000053-0.0000001-0.0000053-0.0000471 0.0000026
           dy  0.0000033-0.0000130 0.0000003 0.0000378 0.0001120-0.0000021
           dz -0.0000001-0.0000004 0.0000027-0.0000008-0.0000010 0.0000148
  20 h     dx  0.0000070 0.0000044-0.0000015-0.0000484-0.0000745 0.0000034
           dy -0.0000053-0.0000025-0.0000003 0.0000232-0.0000219-0.0000003
           dz -0.0000004-0.0000009-0.0000062 0.0000035 0.0000031 0.0000352
  21 h     dx -0.0000112-0.0000208-0.0000011 0.0000690 0.0000832-0.0000072
           dy -0.0000055 0.0000392-0.0000062-0.0001311-0.0006777 0.0000174
           dz -0.0000016 0.0000014-0.0000124-0.0000030-0.0000136 0.0001131
  22 c     dx -0.1670531-0.1126623 0.0076377 0.0134879 0.0036506-0.0007517
           dy -0.0637302-0.2997785 0.0080650-0.0058935-0.0185861 0.0006202
           dz  0.0065515 0.0105358-0.0625565-0.0005015 0.0001562 0.0011767
  23 c     dx  0.0632425 0.0322734-0.0034644 0.0004370-0.0004536 0.0002627
           dy -0.0161132-0.0596100 0.0022123-0.0054754-0.0010464 0.0004832
           dz -0.0024152-0.0002120 0.0088872 0.0004310 0.0001768 0.0061723
  24 c     dx -0.0483162-0.0328671 0.0027488-0.0014018-0.0032471 0.0001447
           dy -0.0318370-0.0215999 0.0019523-0.0026010 0.0000871 0.0001201
           dz  0.0027578 0.0019404-0.0072287 0.0000905 0.0001567-0.0004757
  25 c     dx -0.0381345 0.0244512 0.0019099-0.0080642-0.0026353 0.0005622
           dy  0.0719720 0.0404694-0.0042857-0.0022277 0.0047399 0.0000757
           dz  0.0008312-0.0018910 0.0086055 0.0007327 0.0000633 0.0033451
  26 c     dx -0.3230804-0.0082380 0.0133292-0.0171670 0.0148006 0.0004809
           dy -0.0512009-0.1205602 0.0036908 0.0337848 0.0006249-0.0015141
           dz  0.0142529 0.0015495-0.0653301 0.0002475-0.0006665 0.0004542
  27 h     dx -0.0105495-0.0025945 0.0007554 0.0000343 0.0017209-0.0001752
           dy -0.0280257 0.0025371 0.0014494-0.0035150 0.0013723 0.0000409
           dz  0.0012771 0.0001708 0.0034422-0.0001002-0.0001902-0.0032414
  28 h     dx -0.0010374 0.0035756 0.0003344 0.0005673 0.0001630-0.0000190
           dy  0.0047534-0.0034704-0.0000244-0.0013339 0.0011872 0.0000679
           dz  0.0003112 0.0000395 0.0067742 0.0000168-0.0000298 0.0001711
  29 h     dx -0.0008433-0.0010475 0.0000279-0.0000747-0.0002852-0.0000330
           dy -0.0011872 0.0000193 0.0000446-0.0000382 0.0001527-0.0000082
           dz  0.0000201 0.0000412-0.0008671-0.0000418-0.0000110-0.0007983
  30 h     dx -0.0007177 0.0039431 0.0003525-0.0010183-0.0013702 0.0000601
           dy  0.0037498-0.0037854 0.0000443 0.0017490 0.0007572-0.0000847
           dz  0.0003525 0.0000388 0.0077424 0.0000141 0.0000479 0.0000261
  31 h     dx -0.0090962-0.0282383 0.0011913-0.0008040-0.0027260 0.0000941
           dy -0.0019018 0.0041465 0.0000996 0.0004100 0.0014770-0.0000628
           dz  0.0007334 0.0014692 0.0037577-0.0000436 0.0001259-0.0008517

   ATOM              3 o                           4 pu
                  dx        dy        dz        dx        dy        dz
   3 o     dx  0.0702835
           dy  0.0554966 0.1589580
           dz -0.0699162-0.1352793 0.3152114
   4 pu    dx -0.0142423 0.0037546-0.0069810 0.8056490
           dy  0.0016389-0.0146230-0.0100077-0.2809584 0.3717410
           dz -0.0002951-0.0048229-0.0201758-0.0249373 0.0085860 0.1232540
   5 o     dx -0.0014923-0.0031358-0.0003887-0.0142212 0.0016674-0.0002792
           dy -0.0031354-0.0058565-0.0006503 0.0037294-0.0146056-0.0048411
           dz -0.0003842-0.0006383 0.0002810-0.0069738-0.0100123-0.0201771
   6 s     dx  0.0003696 0.0009954 0.0001429-0.0024554-0.0179504 0.0011274
           dy  0.0018969 0.0032665 0.0002906-0.0277770-0.0301285 0.0017016
           dz -0.0004214-0.0008494-0.0009349 0.0012957 0.0013165 0.0223704
   7 c     dx  0.0000438 0.0000063 0.0000164-0.0005494 0.0001487-0.0000746
           dy -0.0001316-0.0002782 0.0000275 0.0002485 0.0008664-0.0000558
           dz  0.0000301 0.0000548 0.0001286-0.0001118-0.0000927-0.0028715
   8 o     dx  0.0247539 0.0114918 0.0065172-0.0137578 0.0024235-0.0002810
           dy  0.0122778 0.0239537 0.0109897 0.0043878-0.0142699 0.0042453
           dz -0.0113988-0.0130297-0.0353318 0.0063501 0.0096624-0.0210143
   9 o     dx -0.0005893-0.0014261 0.0001118-0.0137848 0.0023991-0.0002557
           dy -0.0014481-0.0027039-0.0001267 0.0043916-0.0143202 0.0042824
           dz  0.0000938 0.0003301 0.0016907 0.0063552 0.0096824-0.0210458
  10 o     dx  0.0089889 0.0053817 0.0019093-0.3692292 0.1553414 0.0118226
           dy -0.0001441-0.0061791-0.0006622 0.1507064-0.1268678-0.0049579
           dz  0.0011365-0.0027862 0.0017200 0.0118742-0.0051865-0.0407538
  11 o     dx -0.0043119-0.0107915-0.0006913-0.3692301 0.1553125 0.0118150
           dy -0.0022757 0.0079142-0.0001798 0.1506383-0.1268070-0.0049603
           dz -0.0031563 0.0001264 0.0020528 0.0117762-0.0051256-0.0407071
  12 c     dx  0.0002296 0.0003822-0.0000129-0.0023202-0.0017988 0.0000973
           dy -0.0000373-0.0000742 0.0000177 0.0003603 0.0002306 0.0000159
           dz  0.0000049 0.0000013 0.0000346 0.0001538 0.0001174-0.0000562
  13 c     dx  0.0000090-0.0000386 0.0000037-0.0005293 0.0001374 0.0000519
           dy -0.0000241-0.0000718-0.0000012-0.0003263 0.0003660 0.0000354
           dz  0.0000118-0.0000010 0.0000260 0.0000528-0.0000132 0.0003631
  14 c     dx  0.0000565 0.0000996 0.0000026 0.0001521-0.0003941-0.0000016
           dy -0.0001102-0.0001689-0.0000099 0.0009389 0.0008519-0.0000543
           dz -0.0000024-0.0000180 0.0000405-0.0000188-0.0000029-0.0000016
  15 c     dx -0.0000809-0.0001868 0.0000056-0.0013324 0.0008904 0.0000522
           dy  0.0000118-0.0000761 0.0000033-0.0022030 0.0001924 0.0001087
           dz -0.0000029-0.0000350 0.0000486 0.0001163-0.0000466-0.0000779
  16 c     dx  0.0000940 0.0002244 0.0000097 0.0017488-0.0011689-0.0000760
           dy -0.0001564-0.0001437-0.0000212 0.0034794-0.0000173-0.0002074
           dz -0.0000073-0.0000375 0.0000403-0.0003580 0.0000799 0.0000885
  17 h     dx -0.0000307-0.0000794 0.0000016-0.0000954 0.0003562-0.0000125
           dy  0.0000429 0.0000681-0.0000052-0.0005892-0.0002409 0.0000226
           dz  0.0000059 0.0000208-0.0000068 0.0000158-0.0000226-0.0001937
  18 h     dx  0.0000022-0.0000139 0.0000036-0.0001887 0.0000165 0.0000080
           dy -0.0000699-0.0001407 0.0000071 0.0002181 0.0006280-0.0000078
           dz  0.0000064 0.0000107-0.0000102 0.0000017-0.0000198 0.0000462
  19 h     dx  0.0000219 0.0000427-0.0000038-0.0001381-0.0001498 0.0000055
           dy -0.0000540-0.0001164 0.0000046-0.0002088 0.0004267 0.0000068
           dz  0.0000024 0.0000046-0.0000112 0.0000222-0.0000071 0.0000194
  20 h     dx  0.0000686 0.0000959-0.0000021-0.0005043-0.0004399 0.0000224
           dy -0.0000229-0.0000007-0.0000069 0.0006266 0.0000715-0.0000283
           dz  0.0000057 0.0000048-0.0000399 0.0000243 0.0000204 0.0000098
  21 h     dx -0.0000798-0.0001129-0.0000167 0.0006095 0.0014209 0.0000243
           dy  0.0002348 0.0006401 0.0000141 0.0068839-0.0033480-0.0002652
           dz  0.0000233 0.0000513-0.0000920 0.0001232-0.0000984 0.0005857
  22 c     dx -0.0011364 0.0062388-0.0046402-0.0023298-0.0018065 0.0001056
           dy  0.0010532-0.0017734 0.0012952 0.0003469 0.0002530-0.0000134
           dz -0.0004352 0.0009193-0.0000103 0.0001233 0.0000911 0.0000090
  23 c     dx -0.0003276-0.0000387 0.0010006-0.0005342 0.0001627 0.0000367
           dy  0.0015691-0.0009246 0.0007393-0.0003248 0.0003537 0.0000257
           dz  0.0005082-0.0022735 0.0001656 0.0000476-0.0000120 0.0004385
  24 c     dx  0.0010661 0.0002117-0.0002249 0.0001598-0.0004161-0.0000005
           dy  0.0006815-0.0013949 0.0003058 0.0009439 0.0008314-0.0000422
           dz -0.0000334 0.0002264-0.0001831-0.0000191 0.0000017 0.0000294
  25 c     dx  0.0024577-0.0004204-0.0009894-0.0013359 0.0008884 0.0000495
           dy -0.0004948 0.0006670-0.0004733-0.0022157 0.0002310 0.0000910
           dz -0.0003478-0.0013720 0.0009233 0.0000914-0.0000399-0.0000441
  26 c     dx -0.0000400-0.0019984 0.0005001 0.0017370-0.0011396-0.0000755
           dy -0.0054004-0.0007347 0.0024315 0.0034751-0.0000289-0.0001587
           dz -0.0008783-0.0003257 0.0010207-0.0002305 0.0000610 0.0001115
  27 h     dx -0.0002194-0.0001294 0.0006886-0.0000939 0.0003594-0.0000119
           dy  0.0011429 0.0003805-0.0005858-0.0005904-0.0002403 0.0000209
           dz -0.0000601 0.0011681-0.0003229 0.0000090-0.0000168-0.0001722
  28 h     dx -0.0000852 0.0002551-0.0002572-0.0001914 0.0000200 0.0000079
           dy  0.0000174-0.0008417 0.0006339 0.0002162 0.0006330-0.0000098
           dz  0.0001293-0.0002362-0.0000068 0.0000041-0.0000111-0.0001135
  29 h     dx  0.0001272 0.0002283-0.0001339-0.0001412-0.0001462 0.0000091
           dy  0.0000264-0.0001400 0.0000805-0.0002101 0.0004295 0.0000050
           dz  0.0000505 0.0002971-0.0000916 0.0000146-0.0000032 0.0000058
  30 h     dx  0.0004863 0.0005076-0.0004655-0.0005047-0.0004380 0.0000246
           dy -0.0005337-0.0002199 0.0003744 0.0006249 0.0000734-0.0000291
           dz -0.0000337 0.0001991-0.0001016 0.0000194 0.0000191 0.0000114
  31 h     dx  0.0011462 0.0003841-0.0002744 0.0006106 0.0014273 0.0000072
           dy -0.0007696-0.0013962-0.0001446 0.0069423-0.0034104-0.0002553
           dz  0.0009934 0.0007247-0.0009431 0.0000400-0.0000624 0.0005460

   ATOM              5 o                           6 s 
                  dx        dy        dz        dx        dy        dz
   5 o     dx  0.0704613
           dy  0.0554231 0.1583552
           dz -0.0702665-0.1349000 0.3158328
   6 s     dx -0.1068276-0.0564228 0.0743043 0.3752265
           dy -0.0724787-0.1405383 0.1200879 0.1086650 0.3991632
           dz  0.0933952 0.1334557-0.2585586 0.0031612-0.0034680 0.5076253
   7 c     dx  0.0190127-0.0109497 0.0001065-0.1281096 0.0545818 0.0035653
           dy  0.0112139-0.0167857 0.0105781 0.0154075-0.0763299 0.0002879
           dz -0.0085999 0.0237802-0.0072041 0.0039762-0.0014378-0.0306380
   8 o     dx -0.0005867-0.0014195 0.0001115 0.0003917 0.0018643 0.0002600
           dy -0.0014504-0.0026977-0.0001296 0.0010493 0.0032748 0.0006681
           dz  0.0000974 0.0003356 0.0016824-0.0002542-0.0005231-0.0009335
   9 o     dx  0.0247745 0.0114975 0.0065116-0.1202146-0.0835976-0.1017029
           dy  0.0122586 0.0239198 0.0108602-0.0688293-0.1458494-0.1312151
           dz -0.0114462-0.0131346-0.0353290-0.0833915-0.1162021-0.2391440
  10 o     dx -0.0043104-0.0107728-0.0006763 0.0002150 0.0097351-0.0002181
           dy -0.0022879 0.0078832-0.0001825 0.0011811-0.0053003-0.0000335
           dz -0.0031433 0.0001454 0.0020558-0.0001088-0.0004426-0.0022226
  11 o     dx  0.0089873 0.0053835 0.0019022-0.0042843-0.0010363 0.0000247
           dy -0.0001420-0.0061853-0.0006553 0.0019714 0.0045606-0.0001340
           dz  0.0011288-0.0027844 0.0017352-0.0000211-0.0000283-0.0042467
  12 c     dx -0.0011580 0.0063000-0.0046647 0.0134708 0.0036145-0.0009666
           dy  0.0010729-0.0018135 0.0013444-0.0059210-0.0185842 0.0008393
           dz -0.0004323 0.0008830 0.0000225-0.0005623 0.0002868 0.0011452
  13 c     dx -0.0003012-0.0000629 0.0010293 0.0004400-0.0004538 0.0003046
           dy  0.0015807-0.0009806 0.0007116-0.0054621-0.0010283 0.0006778
           dz  0.0004697-0.0022546 0.0001270 0.0005744 0.0002767 0.0061053
  14 c     dx  0.0010573 0.0001911-0.0002520-0.0014062-0.0032354 0.0002238
           dy  0.0006701-0.0013994 0.0003003-0.0026006 0.0000938 0.0001356
           dz -0.0000394 0.0002395-0.0001946 0.0001209 0.0001951-0.0005077
  15 c     dx  0.0024646-0.0004563-0.0009810-0.0080464-0.0026176 0.0006639
           dy -0.0004677 0.0006853-0.0004499-0.0022118 0.0047350 0.0000709
           dz -0.0004110-0.0013393 0.0009343 0.0009767 0.0000470 0.0033058
  16 c     dx -0.0000713-0.0020043 0.0005752-0.0171038 0.0148210 0.0004022
           dy -0.0054251-0.0007077 0.0024234 0.0337908 0.0005645-0.0017269
           dz -0.0008544-0.0002927 0.0009845 0.0001092-0.0007631 0.0004488
  17 h     dx -0.0002150-0.0001096 0.0006818 0.0000288 0.0017173-0.0002084
           dy  0.0011531 0.0003963-0.0005930-0.0035162 0.0013690-0.0000094
           dz -0.0000610 0.0011674-0.0003208-0.0001005-0.0002736-0.0032239
  18 h     dx -0.0000841 0.0002551-0.0002574 0.0005675 0.0001624-0.0000270
           dy  0.0000207-0.0008510 0.0006377-0.0013318 0.0011886 0.0000849
           dz  0.0001346-0.0002237 0.0000311 0.0000306-0.0000363 0.0003480
  19 h     dx  0.0001299 0.0002317-0.0001363-0.0000765-0.0002875-0.0000436
           dy  0.0000303-0.0001387 0.0000771-0.0000376 0.0001506-0.0000102
           dz  0.0000534 0.0002909-0.0000929-0.0000494-0.0000233-0.0008069
  20 h     dx  0.0004839 0.0005109-0.0004676-0.0010170-0.0013677 0.0000693
           dy -0.0005358-0.0002137 0.0003746 0.0017504 0.0007568-0.0000946
           dz -0.0000337 0.0001984-0.0000937 0.0000063 0.0000480 0.0000376
  21 h     dx  0.0011934 0.0003956-0.0003099-0.0008095-0.0027272 0.0001572
           dy -0.0007506-0.0013754-0.0001538 0.0004108 0.0014622-0.0000660
           dz  0.0009995 0.0006927-0.0009488-0.0000838 0.0001684-0.0008403
  22 c     dx  0.0002296 0.0003806-0.0000134-0.0001199-0.0003235 0.0000083
           dy -0.0000385-0.0000714 0.0000172 0.0000130 0.0000528 0.0000018
           dz  0.0000157 0.0000122 0.0000324 0.0000054 0.0000146-0.0000126
  23 c     dx  0.0000078-0.0000365 0.0000041-0.0000116 0.0000427 0.0000015
           dy -0.0000225-0.0000723-0.0000002 0.0000055 0.0000706 0.0000005
           dz  0.0000159 0.0000058 0.0000210-0.0000004-0.0000035-0.0000233
  24 c     dx  0.0000575 0.0000985 0.0000019-0.0000355-0.0000805 0.0000028
           dy -0.0001118-0.0001697-0.0000099 0.0000710 0.0001428-0.0000066
           dz  0.0000011-0.0000164 0.0000345-0.0000018 0.0000052-0.0000095
  25 c     dx -0.0000821-0.0001865 0.0000048 0.0000631 0.0001809-0.0000081
           dy  0.0000068-0.0000768 0.0000051-0.0000029 0.0001211-0.0000023
           dz -0.0000092-0.0000376 0.0000471-0.0000067-0.0000055-0.0000375
  26 c     dx  0.0000977 0.0002263 0.0000066-0.0000579-0.0002410 0.0000067
           dy -0.0001583-0.0001447-0.0000236 0.0000744 0.0000631-0.0000128
           dz -0.0000079-0.0000285 0.0000447 0.0000003 0.0000227-0.0000007
  27 h     dx -0.0000315-0.0000792 0.0000018 0.0000099 0.0000775 0.0000015
           dy  0.0000429 0.0000691-0.0000046-0.0000240-0.0000521 0.0000026
           dz  0.0000026 0.0000194-0.0000064 0.0000007-0.0000044 0.0000228
  28 h     dx  0.0000027-0.0000134 0.0000034 0.0000020 0.0000157 0.0000010
           dy -0.0000702-0.0001396 0.0000072 0.0000327 0.0001441-0.0000019
           dz -0.0000226-0.0000111 0.0000185-0.0000012-0.0000004 0.0000880
  29 h     dx  0.0000224 0.0000433-0.0000037-0.0000046-0.0000456 0.0000009
           dy -0.0000538-0.0001163 0.0000038 0.0000361 0.0001100-0.0000026
           dz  0.0000156 0.0000129-0.0000173 0.0000026 0.0000003 0.0000232
  30 h     dx  0.0000681 0.0000959-0.0000010-0.0000488-0.0000747 0.0000046
           dy -0.0000223 0.0000018-0.0000064 0.0000234-0.0000224-0.0000004
           dz  0.0000050 0.0000076-0.0000383 0.0000032 0.0000042 0.0000430
  31 h     dx -0.0000796-0.0001103-0.0000148 0.0000696 0.0000835-0.0000031
           dy  0.0002402 0.0006435 0.0000139-0.0001293-0.0006856 0.0000152
           dz  0.0000277 0.0000474-0.0001001-0.0000015-0.0000060 0.0001152

   ATOM              7 c                           8 o 
                  dx        dy        dz        dx        dy        dz
   7 c     dx  0.6241312
           dy  0.0826504 0.5718017
           dz -0.0328024-0.0185538 0.1443292
   8 o     dx  0.0000381-0.0001308-0.0000080 0.0821556
           dy  0.0000008-0.0002781-0.0000249 0.0673651 0.1634985
           dz -0.0000145-0.0000140 0.0001280 0.0866019 0.1332677 0.2980204
   9 o     dx  0.0197120 0.0104942 0.0062955-0.0014145-0.0030603 0.0005798
           dy -0.0124175-0.0174648-0.0223696-0.0030549-0.0058189 0.0010035
           dz -0.0017969-0.0113223-0.0068598 0.0005866 0.0010203 0.0001772
  10 o     dx  0.0004875 0.0003720-0.0000211 0.0086978 0.0054895-0.0025683
           dy -0.0008383-0.0002270 0.0000502-0.0000773-0.0061652 0.0008365
           dz -0.0000650-0.0000100-0.0001458-0.0017170 0.0025041 0.0019562
  11 o     dx  0.0005580 0.0006106-0.0000031-0.0039320-0.0107416 0.0013583
           dy -0.0001243-0.0005220 0.0000257-0.0022188 0.0079537 0.0002302
           dz  0.0000179-0.0000086 0.0008612 0.0036799 0.0006432 0.0017040
  12 c     dx -0.1670766-0.1125872 0.0101081 0.0002280 0.0003786-0.0000098
           dy -0.0637101-0.2993468 0.0113779-0.0000387-0.0000744-0.0000098
           dz  0.0083967 0.0144222-0.0629569-0.0000303-0.0000434 0.0000411
  13 c     dx  0.0631767 0.0320947-0.0044905 0.0000091-0.0000402-0.0000043
           dy -0.0162390-0.0595976 0.0031706-0.0000200-0.0000695 0.0000034
           dz -0.0028481 0.0001812 0.0089398-0.0000057 0.0000056 0.0000270
  14 c     dx -0.0483083-0.0327791 0.0035868 0.0000605 0.0001010-0.0000053
           dy -0.0317460-0.0214889 0.0025065-0.0001088-0.0001642 0.0000224
           dz  0.0035986 0.0024607-0.0073619 0.0000083 0.0000135 0.0000368
  15 c     dx -0.0379959 0.0245316 0.0022183-0.0000792-0.0001815 0.0000103
           dy  0.0719646 0.0402825-0.0054809 0.0000105-0.0000783-0.0000043
           dz  0.0005497-0.0025421 0.0086586 0.0000209 0.0000552 0.0000415
  16 c     dx -0.3228167-0.0078233 0.0164487 0.0001022 0.0002256-0.0000087
           dy -0.0507369-0.1204240 0.0048743-0.0001539-0.0001277 0.0000468
           dz  0.0178792 0.0022254-0.0657418 0.0000006-0.0000113 0.0000421
  17 h     dx -0.0105583-0.0025692 0.0009376-0.0000301-0.0000809 0.0000014
           dy -0.0279788 0.0025884 0.0017892 0.0000444 0.0000673 0.0000014
           dz  0.0017330 0.0002020 0.0033999-0.0000035-0.0000114-0.0000069
  18 h     dx -0.0010159 0.0035773 0.0003827 0.0000018-0.0000147-0.0000044
           dy  0.0047526-0.0034804 0.0000364-0.0000699-0.0001404 0.0000002
           dz  0.0003420 0.0001248 0.0068423-0.0000032-0.0000003-0.0000080
  19 h     dx -0.0008451-0.0010444 0.0000350 0.0000216 0.0000419-0.0000006
           dy -0.0011847 0.0000220 0.0000458-0.0000550-0.0001175 0.0000008
           dz  0.0000337 0.0000528-0.0008713-0.0000023-0.0000024-0.0000113
  20 h     dx -0.0006996 0.0039475 0.0004069 0.0000655 0.0000933-0.0000125
           dy  0.0037516-0.0037921 0.0001194-0.0000223 0.0000011 0.0000086
           dz  0.0004109 0.0001193 0.0077317-0.0000157-0.0000170-0.0000382
  21 h     dx -0.0091006-0.0281854 0.0016194-0.0000824-0.0001131 0.0000141
           dy -0.0019100 0.0042229 0.0001362 0.0002321 0.0006370-0.0000450
           dz  0.0009531 0.0018344 0.0037298-0.0000159-0.0000249-0.0000966
  22 c     dx -0.0000089 0.0000372-0.0000023-0.0006836 0.0060713 0.0045445
           dy  0.0000111-0.0000066-0.0000005 0.0009132-0.0017359-0.0012606
           dz -0.0000010-0.0000020-0.0000052 0.0004825-0.0014405-0.0004588
  23 c     dx -0.0000005-0.0000082-0.0000009-0.0005084 0.0001807-0.0008835
           dy -0.0000001-0.0000144 0.0000006 0.0014666-0.0007764-0.0008927
           dz -0.0000009-0.0000020-0.0000238-0.0005585 0.0023256 0.0003122
  24 c     dx -0.0000063 0.0000111-0.0000012 0.0010974 0.0002478 0.0000683
           dy -0.0000120-0.0000144 0.0000003 0.0006781-0.0013920-0.0003512
           dz  0.0000034-0.0000026 0.0000086-0.0001106-0.0001987-0.0001801
  25 c     dx -0.0000142-0.0000118 0.0000006 0.0025289-0.0002318 0.0008852
           dy  0.0000060-0.0000019 0.0000004-0.0005195 0.0006689 0.0005565
           dz  0.0000029-0.0000007 0.0000048 0.0001185 0.0014769 0.0007870
  26 c     dx -0.0000067 0.0000221-0.0000001 0.0000700-0.0019714-0.0002645
           dy -0.0000198 0.0000050 0.0000023-0.0055161-0.0008229-0.0019822
           dz  0.0000031-0.0000036 0.0000115 0.0011289 0.0005814 0.0010616
  27 h     dx  0.0000036-0.0000084-0.0000003-0.0002814-0.0002764-0.0007099
           dy  0.0000022 0.0000103-0.0000003 0.0011694 0.0003234 0.0004671
           dz -0.0000006 0.0000006-0.0000013 0.0000204-0.0011885-0.0002846
  28 h     dx  0.0000037-0.0000026-0.0000003-0.0000761 0.0002724 0.0002615
           dy  0.0000044-0.0000100 0.0000003-0.0000414-0.0008305-0.0006201
           dz -0.0000004 0.0000037 0.0000348-0.0001231 0.0002388 0.0000066
  29 h     dx  0.0000004 0.0000054-0.0000008 0.0001277 0.0001976 0.0001085
           dy  0.0000037-0.0000125 0.0000008 0.0000117-0.0001542-0.0000913
           dz -0.0000002 0.0000005-0.0000045-0.0000650-0.0003219-0.0000951
  30 h     dx  0.0000061 0.0000051-0.0000008 0.0005202 0.0004955 0.0004090
           dy -0.0000061-0.0000022 0.0000002-0.0005598-0.0002380-0.0003340
           dz -0.0000002-0.0000005-0.0000060-0.0000095-0.0002407-0.0001356
  31 h     dx -0.0000109-0.0000189 0.0000009 0.0009743 0.0003009 0.0000493
           dy -0.0000118 0.0000366-0.0000005-0.0007720-0.0013870 0.0002013
           dz -0.0000001 0.0000034-0.0000120-0.0011439-0.0008193-0.0008570

   ATOM              9 o                          10 o 
                  dx        dy        dz        dx        dy        dz
   9 o     dx  0.0822738
           dy  0.0676556 0.1638352
           dz  0.0866187 0.1333717 0.2974799
  10 o     dx -0.0039405-0.0107455 0.0013794 0.3502222
           dy -0.0021981 0.0079755 0.0002166-0.1495224 0.1111802
           dz  0.0036866 0.0006520 0.0017007-0.0116485 0.0049491 0.0253112
  11 o     dx  0.0087207 0.0054953-0.0025755 0.0115255 0.0018629 0.0000448
           dy -0.0000829-0.0061809 0.0008583 0.0018818 0.0137498-0.0000993
           dz -0.0017109 0.0025362 0.0019555 0.0000832-0.0001183 0.0143672
  12 c     dx -0.0006446 0.0060020 0.0045119 0.0013919-0.0010460-0.0000705
           dy  0.0008952-0.0017220-0.0012271-0.0001698 0.0000858-0.0000163
           dz  0.0004829-0.0014662-0.0005107-0.0000951 0.0000733-0.0000498
  13 c     dx -0.0005356 0.0002024-0.0008512 0.0002607-0.0003077-0.0000115
           dy  0.0014479-0.0007212-0.0009142 0.0002073-0.0002773-0.0000005
           dz -0.0005810 0.0023393 0.0003261-0.0000228 0.0000327-0.0000006
  14 c     dx  0.0011029 0.0002688 0.0000415-0.0000839 0.0003247 0.0000166
           dy  0.0006832-0.0013819-0.0003600-0.0005664 0.0000667 0.0000176
           dz -0.0001352-0.0001972-0.0001818 0.0000005 0.0000062-0.0001358
  15 c     dx  0.0025139-0.0001990 0.0008943 0.0005960-0.0015407-0.0000266
           dy -0.0005466 0.0006521 0.0005726 0.0010575-0.0017053-0.0000718
           dz  0.0000744 0.0015114 0.0007672-0.0000558 0.0001542 0.0000848
  16 c     dx  0.0000844-0.0019857-0.0002033 0.0000133 0.0023278 0.0000723
           dy -0.0054970-0.0008379-0.0019864-0.0016480 0.0005804 0.0001072
           dz  0.0011710 0.0006221 0.0010841 0.0001711-0.0003926 0.0006065
  17 h     dx -0.0002858-0.0002969-0.0007179 0.0000598-0.0001255 0.0000014
           dy  0.0011603 0.0002970 0.0004596 0.0003757-0.0002959-0.0000160
           dz  0.0000048-0.0012018-0.0002940-0.0000144 0.0000140 0.0000217
  18 h     dx -0.0000766 0.0002698 0.0002601 0.0001112-0.0000984-0.0000028
           dy -0.0000466-0.0008256-0.0006186-0.0001153-0.0000349 0.0000050
           dz -0.0001209 0.0002369 0.0000584 0.0000020 0.0000004 0.0000108
  19 h     dx  0.0001277 0.0001916 0.0001042 0.0000448-0.0000579-0.0000049
           dy  0.0000072-0.0001581-0.0000945 0.0001231-0.0003093-0.0000095
           dz -0.0000693-0.0003269-0.0001010-0.0000098 0.0000155-0.0000532
  20 h     dx  0.0005202 0.0004959 0.0004053 0.0003324-0.0000660-0.0000173
           dy -0.0005603-0.0002429-0.0003347-0.0004623 0.0002620 0.0000197
           dz -0.0000105-0.0002452-0.0001406-0.0000201-0.0000024-0.0000914
  21 h     dx  0.0009295 0.0002913 0.0000215-0.0017598-0.0005007 0.0000090
           dy -0.0007729-0.0013714 0.0001983-0.0044598 0.0015795 0.0002244
           dz -0.0011439-0.0008577-0.0008490-0.0000538 0.0001484-0.0012323
  22 c     dx  0.0002288 0.0003776-0.0000105-0.0001900 0.0004466 0.0000037
           dy -0.0000405-0.0000717-0.0000097 0.0001152-0.0000749-0.0000022
           dz -0.0000324-0.0000448 0.0000365 0.0000072-0.0000164-0.0000137
  23 c     dx  0.0000095-0.0000383-0.0000038 0.0001959 0.0000112-0.0000165
           dy -0.0000197-0.0000720 0.0000043 0.0001130-0.0000936-0.0000079
           dz -0.0000095-0.0000016 0.0000232-0.0000132 0.0000018-0.0000380
  24 c     dx  0.0000616 0.0001003-0.0000056-0.0000893 0.0001107 0.0000028
           dy -0.0001093-0.0001683 0.0000225 0.0000649-0.0001666-0.0000005
           dz  0.0000015 0.0000109 0.0000307 0.0000138-0.0000147 0.0001081
  25 c     dx -0.0000782-0.0001831 0.0000103 0.0004381-0.0001522-0.0000154
           dy  0.0000059-0.0000785-0.0000048 0.0004169-0.0000262-0.0000176
           dz  0.0000233 0.0000511 0.0000410-0.0000180-0.0000082 0.0001007
  26 c     dx  0.0000998 0.0002293-0.0000130-0.0003719 0.0001825 0.0000139
           dy -0.0001529-0.0001348 0.0000451-0.0005091-0.0000868 0.0000222
           dz  0.0000042-0.0000035 0.0000437 0.0000491-0.0000215 0.0000246
  27 h     dx -0.0000313-0.0000813 0.0000019 0.0001081-0.0000817-0.0000045
           dy  0.0000430 0.0000686 0.0000007 0.0000432 0.0000449-0.0000023
           dz -0.0000001-0.0000108-0.0000063-0.0000084 0.0000060 0.0000074
  28 h     dx  0.0000020-0.0000153-0.0000047 0.0000356-0.0000016-0.0000025
           dy -0.0000707-0.0001407 0.0000012 0.0001267-0.0001378-0.0000048
           dz  0.0000222 0.0000210 0.0000166-0.0000096 0.0000019-0.0000482
  29 h     dx  0.0000215 0.0000422-0.0000012-0.0000164 0.0000421 0.0000010
           dy -0.0000552-0.0001165 0.0000011 0.0001426-0.0001042-0.0000041
           dz -0.0000173-0.0000123-0.0000161 0.0000038-0.0000039 0.0000167
  30 h     dx  0.0000667 0.0000939-0.0000111-0.0000087 0.0000823-0.0000002
           dy -0.0000224 0.0000014 0.0000088-0.0000990 0.0000104 0.0000045
           dz -0.0000144-0.0000173-0.0000368 0.0000003-0.0000038 0.0000244
  31 h     dx -0.0000822-0.0001134 0.0000146-0.0000075-0.0000657 0.0000015
           dy  0.0002379 0.0006400-0.0000476-0.0014870 0.0006090 0.0000536
           dz -0.0000285-0.0000357-0.0001007-0.0000079 0.0000039 0.0000616

   ATOM             11 o                          12 c 
                  dx        dy        dz        dx        dy        dz
  11 o     dx  0.3502070
           dy -0.1494731 0.1111794
           dz -0.0115869 0.0048929 0.0252057
  12 c     dx -0.0001913 0.0004476 0.0000040 0.7324462
           dy  0.0001156-0.0000788-0.0000076 0.0022611 0.6718159
           dz  0.0000022-0.0000175-0.0000153-0.0368610-0.0169756 0.1405928
  13 c     dx  0.0001961 0.0000068-0.0000207-0.1938724 0.0674823 0.0059043
           dy  0.0001136-0.0000921-0.0000091 0.1339322-0.2695055-0.0018133
           dz -0.0000103-0.0000013-0.0000430 0.0037382 0.0023483-0.0652404
  14 c     dx -0.0000894 0.0001129 0.0000008-0.0373941 0.0729380 0.0004390
           dy  0.0000676-0.0001671 0.0000012 0.0231294 0.0408083-0.0025186
           dz  0.0000079-0.0000095 0.0000964 0.0020745-0.0055566 0.0082166
  15 c     dx  0.0004375-0.0001521-0.0000145-0.0005792 0.0038121-0.0005458
           dy  0.0004138-0.0000294-0.0000166 0.0081051-0.0688094 0.0015605
           dz -0.0000219-0.0000120 0.0000928-0.0006405 0.0017550-0.0070528
  16 c     dx -0.0003702 0.0001895 0.0000069-0.0156571-0.0768512 0.0040120
           dy -0.0005102-0.0000925 0.0000251-0.0359652 0.0244224 0.0016574
           dz  0.0000714-0.0000243 0.0000227 0.0025917 0.0041756 0.0074943
  17 h     dx  0.0001074-0.0000813-0.0000039-0.3289896-0.0183504 0.0185821
           dy  0.0000410 0.0000483-0.0000026-0.0194323-0.0599553 0.0019198
           dz -0.0000109 0.0000070 0.0000108 0.0186070 0.0018513-0.0386047
  18 h     dx  0.0000344-0.0000035-0.0000032 0.0111853 0.0170564-0.0010320
           dy  0.0001261-0.0001365-0.0000049-0.0138899-0.0186915 0.0015605
           dz -0.0000080 0.0000062-0.0000138-0.0000516-0.0003715 0.0033026
  19 h     dx -0.0000156 0.0000414 0.0000005-0.0057777-0.0017057 0.0008773
           dy  0.0001409-0.0001054-0.0000050-0.0008316 0.0018516 0.0002279
           dz -0.0000064 0.0000005 0.0000091 0.0008538 0.0002851 0.0073970
  20 h     dx -0.0000088 0.0000796 0.0000016 0.0006964 0.0003955-0.0001123
           dy -0.0000991 0.0000111 0.0000039 0.0002185-0.0015000 0.0000078
           dz  0.0000001-0.0000036 0.0000265-0.0001123-0.0000094-0.0008948
  21 h     dx -0.0000107-0.0000681 0.0000035-0.0057773 0.0003420 0.0008097
           dy -0.0014719 0.0006011 0.0000504 0.0010674 0.0009044 0.0001018
           dz -0.0000270 0.0000126 0.0000615 0.0007925 0.0001660 0.0071401
  22 c     dx  0.0013980-0.0010500-0.0000583-0.0000555 0.0000094 0.0000007
           dy -0.0001649 0.0000836-0.0000022 0.0000099-0.0000160 0.0000003
           dz -0.0000791 0.0000579-0.0000494-0.0000001-0.0000006-0.0000261
  23 c     dx  0.0002606-0.0003064-0.0000070-0.0000033-0.0000044-0.0000002
           dy  0.0002075-0.0002767-0.0000042 0.0000112-0.0000054 0.0000004
           dz -0.0000164 0.0000235 0.0000071 0.0000004-0.0000007-0.0000143
  24 c     dx -0.0000840 0.0003267 0.0000075-0.0000243 0.0000086 0.0000002
           dy -0.0005648 0.0000622 0.0000210 0.0000126-0.0000006-0.0000018
           dz -0.0000035 0.0000052-0.0001303 0.0000022-0.0000019-0.0000098
  25 c     dx  0.0005989-0.0015481-0.0000172 0.0000128 0.0000022-0.0000017
           dy  0.0010618-0.0017144-0.0000518 0.0000125 0.0000072 0.0000003
           dz -0.0000476 0.0001272 0.0001054 0.0000012-0.0000020 0.0000124
  26 c     dx  0.0000169 0.0023424 0.0000373-0.0000234 0.0000041 0.0000036
           dy -0.0016385 0.0005628 0.0000868-0.0000056-0.0000034-0.0000044
           dz  0.0001056-0.0002454 0.0006330 0.0000033-0.0000002-0.0000024
  27 h     dx  0.0000601-0.0001267 0.0000002 0.0000123-0.0000020-0.0000002
           dy  0.0003758-0.0002986-0.0000145-0.0000089 0.0000029 0.0000009
           dz -0.0000095 0.0000099 0.0000224-0.0000001 0.0000003-0.0000033
  28 h     dx  0.0001095-0.0000973-0.0000032 0.0000036-0.0000027-0.0000003
           dy -0.0001154-0.0000360 0.0000044 0.0000164-0.0000034-0.0000014
           dz  0.0000082-0.0000034 0.0000101-0.0000005 0.0000029 0.0000503
  29 h     dx  0.0000453-0.0000590-0.0000041-0.0000015 0.0000043-0.0000007
           dy  0.0001233-0.0003112-0.0000057 0.0000122-0.0000110-0.0000005
           dz -0.0000148 0.0000154-0.0000560-0.0000013 0.0000001-0.0000021
  30 h     dx  0.0003329-0.0000665-0.0000161-0.0000113 0.0000076 0.0000003
           dy -0.0004619 0.0002636 0.0000176-0.0000015 0.0000035-0.0000003
           dz -0.0000144-0.0000028-0.0000882 0.0000008-0.0000003-0.0000008
  31 h     dx -0.0017607-0.0005104 0.0000176 0.0000083 0.0000009-0.0000019
           dy -0.0045033 0.0015776 0.0001908-0.0000604 0.0000186 0.0000046
           dz  0.0000033 0.0000734-0.0012484-0.0000018 0.0000003-0.0000021

   ATOM             13 c                          14 c 
                  dx        dy        dz        dx        dy        dz
  13 c     dx  0.6870295
           dy  0.0281188 0.7246910
           dz -0.0352023-0.0205856 0.1379724
  14 c     dx -0.3466835-0.0520523 0.0192413 0.7001392
           dy  0.0132476-0.1283140 0.0011915-0.0341237 0.7135817
           dz  0.0171891 0.0052396-0.0656745-0.0339996-0.0162532 0.1398028
  15 c     dx -0.0185006-0.0338924 0.0027474-0.1660947-0.1140217 0.0099574
           dy -0.0824829 0.0238073 0.0046212-0.0477564-0.2975315 0.0104298
           dz  0.0042950 0.0016162 0.0078600 0.0078484 0.0145322-0.0655076
  16 c     dx -0.0575474 0.0268493 0.0023307 0.0652858 0.0356992-0.0047621
           dy  0.0270518-0.0111907-0.0015414-0.0115857-0.0572929 0.0028122
           dz  0.0022940-0.0014671-0.0062444-0.0031841-0.0001525 0.0074784
  17 h     dx -0.0129275-0.0041707 0.0011513 0.0004024 0.0036836 0.0002958
           dy  0.0263115 0.0064810-0.0017444 0.0028818-0.0039973 0.0001791
           dz  0.0001735 0.0001427 0.0032958 0.0003199 0.0001320 0.0071349
  18 h     dx -0.1082995-0.1058703 0.0078604-0.0077843-0.0301653 0.0016379
           dy -0.1063306-0.2840477 0.0145423 0.0013860 0.0005861-0.0000069
           dz  0.0078724 0.0145183-0.0371576 0.0006509 0.0019595 0.0030744
  19 h     dx -0.0123284 0.0279572 0.0000945-0.1491236 0.1296113 0.0028696
           dy -0.0036017 0.0050071 0.0001768 0.1297558-0.2445955-0.0014698
           dz  0.0010740-0.0018014 0.0034250 0.0028659-0.0014531-0.0370510
  20 h     dx  0.0011898-0.0029012 0.0004594-0.0093258 0.0021195 0.0007060
           dy -0.0020459-0.0049414 0.0005130-0.0292975 0.0022272 0.0018561
           dz  0.0004297 0.0005736 0.0070598 0.0017138-0.0001014 0.0029840
  21 h     dx -0.0007794 0.0007426-0.0000640-0.0018683 0.0035406 0.0004879
           dy  0.0006931 0.0004424-0.0000862 0.0032291-0.0018596 0.0000796
           dz -0.0000460-0.0000958-0.0011298 0.0004896 0.0001064 0.0078032
  22 c     dx -0.0000011 0.0000120-0.0000011-0.0000241 0.0000109 0.0000008
           dy -0.0000063-0.0000040 0.0000013 0.0000083 0.0000021-0.0000010
           dz -0.0000014-0.0000009-0.0000116-0.0000001 0.0000001-0.0000083
  23 c     dx -0.0000036-0.0000023 0.0000012-0.0000061-0.0000066 0.0000018
           dy -0.0000037-0.0000045 0.0000014 0.0000012-0.0000007-0.0000000
           dz  0.0000002 0.0000000-0.0000329 0.0000005 0.0000002-0.0000118
  24 c     dx -0.0000046 0.0000001 0.0000006-0.0000189-0.0000027 0.0000003
           dy -0.0000070-0.0000010-0.0000019 0.0000005-0.0000085-0.0000010
           dz  0.0000016-0.0000011-0.0000079 0.0000004 0.0000015-0.0000354
  25 c     dx -0.0000011-0.0000025 0.0000008-0.0000067-0.0000135 0.0000002
           dy  0.0000073-0.0000024 0.0000010 0.0000040-0.0000065 0.0000018
           dz  0.0000002-0.0000004-0.0000109-0.0000007 0.0000008-0.0000315
  26 c     dx  0.0000091 0.0000064 0.0000021-0.0000069 0.0000102 0.0000010
           dy -0.0000020 0.0000035 0.0000004-0.0000140 0.0000024-0.0000002
           dz  0.0000009-0.0000009 0.0000066-0.0000001-0.0000003-0.0000294
  27 h     dx  0.0000015-0.0000013 0.0000001 0.0000033-0.0000040 0.0000003
           dy  0.0000043-0.0000000 0.0000005-0.0000013 0.0000023 0.0000002
           dz  0.0000007-0.0000001-0.0000031-0.0000001-0.0000002-0.0000030
  28 h     dx  0.0000029-0.0000010-0.0000000 0.0000034-0.0000010 0.0000000
           dy -0.0000022-0.0000017-0.0000000 0.0000042-0.0000051-0.0000007
           dz  0.0000004 0.0000010 0.0000468-0.0000001-0.0000002 0.0000308
  29 h     dx  0.0000060 0.0000012-0.0000006 0.0000036 0.0000028-0.0000005
           dy -0.0000028-0.0000067 0.0000006 0.0000047-0.0000065 0.0000003
           dz  0.0000001-0.0000001 0.0000023-0.0000005-0.0000002 0.0000027
  30 h     dx -0.0000006 0.0000003 0.0000002-0.0000025 0.0000013 0.0000001
           dy -0.0000002-0.0000006 0.0000000 0.0000001 0.0000025-0.0000000
           dz  0.0000002-0.0000001 0.0000004 0.0000008 0.0000004 0.0000010
  31 h     dx -0.0000065-0.0000067-0.0000013 0.0000027-0.0000010 0.0000001
           dy  0.0000014 0.0000012 0.0000000-0.0000067 0.0000313-0.0000018
           dz  0.0000006 0.0000003-0.0000031-0.0000002 0.0000001 0.0000091

   ATOM             15 c                          16 c 
                  dx        dy        dz        dx        dy        dz
  15 c     dx  0.7372243
           dy  0.0006794 0.6728763
           dz -0.0374333-0.0170644 0.1401354
  16 c     dx -0.1961043 0.0694071 0.0060111 0.6650473
           dy  0.1372391-0.2828984-0.0016844 0.0237193 0.7433459
           dz  0.0038262 0.0024905-0.0645810-0.0333457-0.0200633 0.1442799
  17 h     dx  0.0007391-0.0000992-0.0001032 0.0002746-0.0026771 0.0005021
           dy  0.0001937-0.0013625 0.0000028-0.0022305-0.0054247 0.0005298
           dz -0.0001158 0.0000244-0.0010366 0.0005136 0.0005738 0.0071349
  18 h     dx -0.0058620 0.0007080 0.0008098-0.0011005 0.0007553-0.0000283
           dy -0.0004005 0.0021364 0.0001966 0.0008837 0.0002463-0.0001032
           dz  0.0008408 0.0001139 0.0074220-0.0000420-0.0000874-0.0011519
  19 h     dx  0.0109360-0.0119198-0.0000861-0.0000055-0.0030392 0.0005223
           dy  0.0195428-0.0178788-0.0005394-0.0038517-0.0043995 0.0005928
           dz -0.0010817 0.0014321 0.0035128 0.0005578 0.0005433 0.0068278
  20 h     dx -0.3324495-0.0233747 0.0191033-0.0141224-0.0035214 0.0012664
           dy -0.0228670-0.0600678 0.0021321 0.0265951 0.0060434-0.0017053
           dz  0.0190744 0.0021484-0.0393622 0.0003043 0.0001835 0.0044031
  21 h     dx  0.0121649 0.0186727-0.0010433-0.1076839-0.1051426 0.0073655
           dy -0.0105406-0.0150213 0.0012669-0.1048169-0.2917408 0.0142684
           dz -0.0000791-0.0004872 0.0048206 0.0071946 0.0140826-0.0431663
  22 c     dx  0.0000127 0.0000122-0.0000012-0.0000225-0.0000054 0.0000024
           dy  0.0000011 0.0000081 0.0000004 0.0000022-0.0000019 0.0000006
           dz -0.0000004-0.0000002 0.0000143 0.0000028-0.0000017-0.0000055
  23 c     dx -0.0000024 0.0000106-0.0000000 0.0000084 0.0000008 0.0000010
           dy -0.0000015-0.0000047 0.0000000 0.0000044 0.0000042-0.0000007
           dz  0.0000005 0.0000005-0.0000096 0.0000002 0.0000042 0.0000024
  24 c     dx -0.0000064 0.0000041-0.0000008-0.0000066-0.0000152 0.0000015
           dy -0.0000128-0.0000088-0.0000004 0.0000100 0.0000026-0.0000020
           dz  0.0000011 0.0000004-0.0000216-0.0000048 0.0000031-0.0000278
  25 c     dx -0.0000130-0.0000013-0.0000009 0.0000105-0.0000144-0.0000004
           dy -0.0000015 0.0000032 0.0000004 0.0000037-0.0000131 0.0000008
           dz  0.0000006-0.0000001-0.0000340-0.0000052 0.0000075-0.0000154
  26 c     dx  0.0000101 0.0000067-0.0000012-0.0000077 0.0000077-0.0000008
           dy -0.0000152-0.0000127-0.0000053 0.0000056-0.0000046 0.0000001
           dz -0.0000009 0.0000007-0.0000123-0.0000038 0.0000018-0.0000345
  27 h     dx -0.0000031-0.0000018 0.0000006 0.0000064-0.0000040-0.0000001
           dy  0.0000019 0.0000040 0.0000010-0.0000063-0.0000055-0.0000002
           dz -0.0000002-0.0000003-0.0000053-0.0000003 0.0000006-0.0000020
  28 h     dx  0.0000037 0.0000019 0.0000003 0.0000050-0.0000005-0.0000000
           dy -0.0000071-0.0000014 0.0000006 0.0000094-0.0000083-0.0000005
           dz -0.0000034-0.0000009 0.0000119-0.0000010-0.0000088 0.0000100
  29 h     dx  0.0000039 0.0000014 0.0000007-0.0000012-0.0000014-0.0000002
           dy -0.0000011 0.0000018 0.0000003 0.0000115-0.0000093-0.0000006
           dz  0.0000006-0.0000000 0.0000072-0.0000008 0.0000011 0.0000028
  30 h     dx  0.0000009 0.0000033 0.0000009-0.0000050-0.0000082 0.0000003
           dy  0.0000008-0.0000005 0.0000006 0.0000014 0.0000096-0.0000006
           dz  0.0000002-0.0000004 0.0000023-0.0000003-0.0000003-0.0000000
  31 h     dx -0.0000063-0.0000090 0.0000022 0.0000055 0.0000149-0.0000002
           dy  0.0000336 0.0000046 0.0000022-0.0000301 0.0000447 0.0000013
           dz -0.0000008 0.0000001 0.0000026-0.0000006-0.0000083 0.0000107

   ATOM             17 h                          18 h 
                  dx        dy        dz        dx        dy        dz
  17 h     dx  0.3519137
           dy  0.0224590 0.0583867
           dz -0.0208308-0.0023912 0.0274107
  18 h     dx  0.0008858-0.0007700-0.0002778 0.1109337
           dy  0.0001830 0.0010750-0.0001758 0.1150595 0.3017072
           dz -0.0003073-0.0001110-0.0039772-0.0090025-0.0159918 0.0262880
  19 h     dx -0.0007076 0.0013349 0.0000178 0.0011466-0.0005233-0.0003198
           dy -0.0002383 0.0001194 0.0000202 0.0005784 0.0007977-0.0001993
           dz  0.0000668-0.0000786 0.0002871-0.0003535-0.0001325-0.0042434
  20 h     dx -0.0000999-0.0000180-0.0000663-0.0005658 0.0001556 0.0000512
           dy  0.0000085 0.0001098-0.0000415-0.0014835-0.0001198 0.0001060
           dz -0.0000670-0.0000438-0.0011781 0.0001055 0.0000041 0.0003187
  21 h     dx -0.0005052-0.0014328 0.0000887 0.0000862-0.0000641-0.0000748
           dy  0.0004076 0.0003098-0.0000352-0.0000270-0.0000314-0.0000313
           dz  0.0000281 0.0000891 0.0001201-0.0000811-0.0000305-0.0012030
  22 c     dx  0.0000126-0.0000083-0.0000005 0.0000036 0.0000167-0.0000006
           dy -0.0000015 0.0000042 0.0000001-0.0000011-0.0000033 0.0000009
           dz -0.0000010 0.0000006-0.0000030-0.0000004-0.0000007-0.0000003
  23 c     dx  0.0000018 0.0000033 0.0000001 0.0000025-0.0000022-0.0000000
           dy -0.0000018-0.0000004 0.0000003-0.0000005-0.0000014 0.0000006
           dz -0.0000001-0.0000002-0.0000013 0.0000001-0.0000007-0.0000022
  24 c     dx  0.0000037-0.0000019-0.0000001 0.0000038 0.0000038-0.0000001
           dy -0.0000037 0.0000022 0.0000006-0.0000012-0.0000058 0.0000003
           dz -0.0000007-0.0000012-0.0000008-0.0000000-0.0000003-0.0000007
  25 c     dx -0.0000030 0.0000025 0.0000002 0.0000030-0.0000072-0.0000006
           dy -0.0000014 0.0000044-0.0000002 0.0000004-0.0000013 0.0000002
           dz -0.0000001-0.0000002-0.0000021-0.0000003-0.0000006-0.0000017
  26 c     dx  0.0000063-0.0000064 0.0000002 0.0000050 0.0000094-0.0000001
           dy -0.0000039-0.0000037 0.0000003-0.0000014-0.0000080-0.0000020
           dz -0.0000010-0.0000007 0.0000012-0.0000005-0.0000012 0.0000003
  27 h     dx -0.0000019 0.0000022 0.0000002 0.0000000-0.0000033 0.0000002
           dy  0.0000017-0.0000009-0.0000000 0.0000008 0.0000037-0.0000001
           dz  0.0000001 0.0000001 0.0000019 0.0000003 0.0000004 0.0000004
  28 h     dx -0.0000001 0.0000009-0.0000001-0.0000005-0.0000017 0.0000003
           dy -0.0000035 0.0000045-0.0000000-0.0000019-0.0000064 0.0000004
           dz  0.0000009 0.0000003 0.0000070 0.0000005 0.0000001 0.0000063
  29 h     dx  0.0000023-0.0000018-0.0000001 0.0000018 0.0000030-0.0000002
           dy -0.0000038 0.0000036 0.0000001-0.0000016-0.0000062 0.0000004
           dz -0.0000003 0.0000003-0.0000011-0.0000001-0.0000001 0.0000001
  30 h     dx  0.0000021 0.0000004-0.0000001 0.0000012 0.0000041-0.0000002
           dy -0.0000002-0.0000017 0.0000003 0.0000003 0.0000012-0.0000000
           dz  0.0000002-0.0000001 0.0000009 0.0000001-0.0000002 0.0000010
  31 h     dx -0.0000036 0.0000014 0.0000001-0.0000014-0.0000021 0.0000000
           dy  0.0000127-0.0000092-0.0000001 0.0000018 0.0000282 0.0000001
           dz  0.0000008-0.0000000-0.0000007 0.0000003 0.0000007 0.0000010

   ATOM             19 h                          20 h 
                  dx        dy        dz        dx        dy        dz
  19 h     dx  0.1553518
           dy -0.1408335 0.2588661
           dz -0.0036126 0.0013472 0.0256338
  20 h     dx  0.0008130-0.0004136-0.0002822 0.3538754
           dy  0.0006629 0.0010898-0.0002020 0.0244009 0.0592003
           dz -0.0003156-0.0001319-0.0038947-0.0212177-0.0025923 0.0274250
  21 h     dx  0.0004150 0.0010659-0.0000624 0.0008067-0.0006354-0.0002889
           dy -0.0005181-0.0005965 0.0000560-0.0001169 0.0011137-0.0001568
           dz -0.0000066-0.0000395 0.0000033-0.0003214-0.0001339-0.0043054
  22 c     dx -0.0000019 0.0000122 0.0000001-0.0000110-0.0000011 0.0000008
           dy  0.0000045-0.0000107 0.0000006 0.0000084 0.0000033-0.0000008
           dz  0.0000004-0.0000009 0.0000003-0.0000000-0.0000002-0.0000023
  23 c     dx  0.0000056-0.0000025 0.0000002-0.0000009 0.0000002 0.0000006
           dy  0.0000006-0.0000059 0.0000002 0.0000003-0.0000012-0.0000005
           dz  0.0000003 0.0000007-0.0000001 0.0000001-0.0000005-0.0000003
  24 c     dx  0.0000034 0.0000048-0.0000003-0.0000026-0.0000002 0.0000007
           dy  0.0000023-0.0000066-0.0000000 0.0000007 0.0000032 0.0000011
           dz -0.0000001 0.0000002-0.0000023 0.0000013-0.0000002 0.0000030
  25 c     dx  0.0000036-0.0000008-0.0000003 0.0000010 0.0000013 0.0000012
           dy  0.0000005 0.0000024 0.0000001 0.0000029-0.0000007-0.0000003
           dz  0.0000000 0.0000009-0.0000003 0.0000005-0.0000003 0.0000040
  26 c     dx -0.0000020 0.0000123-0.0000001-0.0000042 0.0000008-0.0000004
           dy -0.0000013-0.0000083-0.0000009-0.0000082 0.0000078 0.0000021
           dz  0.0000000-0.0000004-0.0000042 0.0000012-0.0000004 0.0000001
  27 h     dx  0.0000023-0.0000038 0.0000002 0.0000022-0.0000002 0.0000001
           dy -0.0000022 0.0000042 0.0000003 0.0000006-0.0000015-0.0000008
           dz -0.0000001 0.0000001 0.0000006-0.0000004-0.0000000 0.0000007
  28 h     dx  0.0000020-0.0000018 0.0000001 0.0000010 0.0000001 0.0000002
           dy  0.0000028-0.0000067 0.0000001 0.0000043 0.0000012-0.0000000
           dz  0.0000001 0.0000004 0.0000037 0.0000011 0.0000003 0.0000014
  29 h     dx  0.0000005 0.0000023 0.0000001-0.0000007 0.0000004 0.0000000
           dy  0.0000024-0.0000037-0.0000000 0.0000041 0.0000016-0.0000002
           dz -0.0000001 0.0000004 0.0000012 0.0000003-0.0000002 0.0000017
  30 h     dx -0.0000010 0.0000044-0.0000000 0.0000005-0.0000025-0.0000003
           dy  0.0000001 0.0000012 0.0000003-0.0000022 0.0000018 0.0000000
           dz  0.0000003-0.0000005 0.0000010 0.0000006 0.0000004 0.0000019
  31 h     dx  0.0000019-0.0000023 0.0000003-0.0000028 0.0000008 0.0000005
           dy -0.0000045 0.0000199 0.0000001-0.0000160 0.0000005 0.0000006
           dz  0.0000002 0.0000001 0.0000041 0.0000011 0.0000002 0.0000037

   ATOM             21 h                          22 c 
                  dx        dy        dz        dx        dy        dz
  21 h     dx  0.1122038
           dy  0.1124350 0.3040299
           dz -0.0087390-0.0155701 0.0294936
  22 c     dx  0.0000086-0.0000660-0.0000012 0.7331855
           dy  0.0000001 0.0000184-0.0000006 0.0028789 0.6720908
           dz -0.0000022 0.0000029-0.0000022-0.0300710-0.0111055 0.1395484
  23 c     dx -0.0000064-0.0000015 0.0000004-0.1941882 0.0674731 0.0051598
           dy -0.0000057 0.0000035 0.0000010 0.1339841-0.2692492-0.0025397
           dz -0.0000004-0.0000012-0.0000056 0.0037463 0.0008427-0.0651009
  24 c     dx  0.0000032-0.0000098-0.0000009-0.0375358 0.0728980 0.0007497
           dy -0.0000003 0.0000316 0.0000013 0.0230449 0.0409736-0.0018700
           dz  0.0000023-0.0000022 0.0000039 0.0018162-0.0043542 0.0081840
  25 c     dx -0.0000055 0.0000282 0.0000003-0.0005806 0.0038740-0.0004253
           dy -0.0000061 0.0000098-0.0000001 0.0081776-0.0688518 0.0009223
           dz  0.0000024-0.0000036-0.0000035-0.0004850 0.0011018-0.0070105
  26 c     dx  0.0000052-0.0000341-0.0000009-0.0156041-0.0769752 0.0028390
           dy  0.0000167 0.0000428-0.0000010-0.0360526 0.0242306 0.0014646
           dz  0.0000007 0.0000003 0.0000037 0.0019219 0.0035006 0.0076327
  27 h     dx -0.0000044 0.0000130 0.0000004-0.3293256-0.0188609 0.0150944
           dy  0.0000015-0.0000091-0.0000005-0.0199446-0.0600372 0.0014721
           dz -0.0000002-0.0000008 0.0000026 0.0151229 0.0014046-0.0381850
  28 h     dx -0.0000015 0.0000015 0.0000001 0.0111942 0.0171024-0.0007531
           dy -0.0000026 0.0000277 0.0000003-0.0138717-0.0187006 0.0011541
           dz  0.0000012 0.0000044 0.0000065-0.0001243-0.0004074 0.0031532
  29 h     dx  0.0000014-0.0000046-0.0000004-0.0057939-0.0017261 0.0007037
           dy -0.0000021 0.0000203 0.0000002-0.0008491 0.0018453 0.0001590
           dz  0.0000005-0.0000005-0.0000008 0.0006887 0.0002040 0.0074210
  30 h     dx -0.0000032-0.0000140-0.0000001 0.0006977 0.0004005-0.0000905
           dy  0.0000007 0.0000003-0.0000000 0.0002203-0.0014984 0.0000030
           dz  0.0000008 0.0000006 0.0000024-0.0000891-0.0000104-0.0008970
  31 h     dx -0.0000074 0.0000147 0.0000005-0.0057935 0.0003247 0.0006593
           dy  0.0000109-0.0001056-0.0000023 0.0010593 0.0009058 0.0000582
           dz  0.0000014 0.0000025-0.0000019 0.0006497 0.0001112 0.0071509

   ATOM             23 c                          24 c 
                  dx        dy        dz        dx        dy        dz
  23 c     dx  0.6877032
           dy  0.0286485 0.7251134
           dz -0.0284271-0.0136918 0.1368722
  24 c     dx -0.3470305-0.0525408 0.0153268 0.7009490
           dy  0.0128082-0.1284208 0.0006695-0.0336322 0.7138326
           dz  0.0139786 0.0039636-0.0651958-0.0277154-0.0103336 0.1388612
  25 c     dx -0.0184395-0.0339841 0.0020557-0.1661001-0.1141197 0.0074989
           dy -0.0826591 0.0236292 0.0038442-0.0477544-0.2979265 0.0072936
           dz  0.0030658 0.0013934 0.0080128 0.0061239 0.0106325-0.0650688
  26 c     dx -0.0576560 0.0267889 0.0020355 0.0653422 0.0358735-0.0036868
           dy  0.0269904-0.0110943-0.0012632-0.0114348-0.0572762 0.0019435
           dz  0.0020078-0.0012301-0.0062023-0.0026615-0.0004604 0.0074201
  27 h     dx -0.0129682-0.0042030 0.0009150 0.0003893 0.0036836 0.0002621
           dy  0.0263060 0.0065228-0.0014016 0.0028823-0.0039913 0.0000858
           dz  0.0002714 0.0001410 0.0032980 0.0002827 0.0000498 0.0071434
  28 h     dx -0.1082238-0.1058977 0.0058277-0.0077799-0.0302103 0.0011776
           dy -0.1063582-0.2845627 0.0105293 0.0013705 0.0005330-0.0000185
           dz  0.0058361 0.0105185-0.0369054 0.0005342 0.0015703 0.0029576
  29 h     dx -0.0123707 0.0279541 0.0002162-0.1494885 0.1297101 0.0029674
           dy -0.0036337 0.0050510 0.0001503 0.1298510-0.2442640-0.0022172
           dz  0.0008606-0.0014463 0.0034117 0.0029618-0.0022084-0.0370387
  30 h     dx  0.0011862-0.0029050 0.0003574-0.0093186 0.0021019 0.0005808
           dy -0.0020462-0.0049580 0.0003551-0.0293462 0.0021772 0.0014999
           dz  0.0003408 0.0004012 0.0070802 0.0012392-0.0000908 0.0030288
  31 h     dx -0.0007790 0.0007443-0.0000440-0.0018871 0.0035355 0.0004177
           dy  0.0006865 0.0004472-0.0000657 0.0032190-0.0018634 0.0000245
           dz -0.0000287-0.0000731-0.0011367 0.0004126 0.0000334 0.0078036

   ATOM             25 c                          26 c 
                  dx        dy        dz        dx        dy        dz
  25 c     dx  0.7380268
           dy  0.0013012 0.6730885
           dz -0.0303277-0.0112312 0.1389836
  26 c     dx -0.1964535 0.0693956 0.0052132 0.6656922
           dy  0.1373262-0.2826520-0.0024289 0.0241461 0.7438600
           dz  0.0037930 0.0009722-0.0644322-0.0269849-0.0134337 0.1431313
  27 h     dx  0.0007405-0.0000966-0.0000865 0.0002692-0.0026806 0.0004008
           dy  0.0001972-0.0013675 0.0000015-0.0022352-0.0054416 0.0003689
           dz -0.0000925 0.0000107-0.0010357 0.0003965 0.0003990 0.0071569
  28 h     dx -0.0058823 0.0006883 0.0006611-0.0011026 0.0007565-0.0000198
           dy -0.0004221 0.0021302 0.0001373 0.0008849 0.0002514-0.0000766
           dz  0.0006879 0.0000729 0.0073669-0.0000222-0.0000759-0.0011604
  29 h     dx  0.0109395-0.0119071-0.0001263-0.0000077-0.0030496 0.0004080
           dy  0.0195920-0.0178800-0.0005430-0.0038563-0.0044204 0.0004271
           dz -0.0007838 0.0010529 0.0034985 0.0004410 0.0003783 0.0068467
  30 h     dx -0.3328044-0.0239024 0.0153522-0.0141675-0.0035558 0.0010098
           dy -0.0233969-0.0601642 0.0016445 0.0265868 0.0060819-0.0013711
           dz  0.0153331 0.0016681-0.0389072 0.0003865 0.0001514 0.0044188
  31 h     dx  0.0121744 0.0187256-0.0007606-0.1076013-0.1051547 0.0054501
           dy -0.0105138-0.0150084 0.0009265-0.1048411-0.2922980 0.0103844
           dz -0.0001302-0.0005030 0.0047973 0.0053571 0.0102884-0.0428154

   ATOM             27 h                          28 h 
                  dx        dy        dz        dx        dy        dz
  27 h     dx  0.3522911
           dy  0.0230218 0.0584806
           dz -0.0169105-0.0018181 0.0269604
  28 h     dx  0.0008901-0.0007665-0.0002329 0.1108709
           dy  0.0001874 0.0010781-0.0001148 0.1150950 0.3022687
           dz -0.0002479-0.0000644-0.0040259-0.0067083-0.0115631 0.0266412
  29 h     dx -0.0007101 0.0013362 0.0000221 0.0011571-0.0005175-0.0002722
           dy -0.0002391 0.0001224 0.0000148 0.0005843 0.0008006-0.0001374
           dz  0.0000550-0.0000627 0.0002905-0.0002846-0.0000801-0.0043021
  30 h     dx -0.0000990-0.0000178-0.0000548-0.0005647 0.0001560 0.0000440
           dy  0.0000090 0.0001120-0.0000276-0.0014877-0.0001214 0.0000840
           dz -0.0000552-0.0000270-0.0011799 0.0000780 0.0000018 0.0003315
  31 h     dx -0.0005052-0.0014356 0.0000645 0.0000888-0.0000634-0.0000612
           dy  0.0004033 0.0003065-0.0000234-0.0000316-0.0000354-0.0000099
           dz  0.0000236 0.0000700 0.0001282-0.0000676-0.0000219-0.0011826

   ATOM             29 h                          30 h 
                  dx        dy        dz        dx        dy        dz
  29 h     dx  0.1557638
           dy -0.1409300 0.2585056
           dz -0.0036260 0.0022431 0.0256639
  30 h     dx  0.0008160-0.0004095-0.0002324 0.3542754
           dy  0.0006690 0.0010939-0.0001384 0.0249794 0.0593076
           dz -0.0002517-0.0000824-0.0039080-0.0170651-0.0019616 0.0268999
  31 h     dx  0.0004141 0.0010677-0.0000467 0.0008156-0.0006285-0.0002424
           dy -0.0005221-0.0005950 0.0000420-0.0001181 0.0011121-0.0001012
           dz -0.0000100-0.0000389 0.0000029-0.0002585-0.0000832-0.0043181

   ATOM             31 h 
                  dx        dy        dz
  31 h     dx  0.1121232
           dy  0.1124601 0.3047434
           dz -0.0065211-0.0113036 0.0291793
 

   *** projected hessian written onto $hessian (projected), file=<hessian> ***

 dipole moment in principle axis system (a.u.) :
    -0.0027817031    -0.0025118545    -0.0001883783
 norm :  3.752701898274786E-003

 rotational constants b for rotations around axis of inertia
 and optical intensities for (1 <-- 0) transition

   b   :     0.0030820100     0.0295137187     0.0028818313   (cm**(-1))
   b   :          92.3963         884.7990          86.3951     (MHz)
  int. :     0.0000077379     0.0000063094     0.0000000355     (a.u.)

   x   :     0.9989153234    -0.0001889510     0.0465633013
   y   :    -0.0003528547     0.9999323372     0.0116274001
   z   :    -0.0465623477    -0.0116312182     0.9988476673

   ***  normal modes written onto $vibrational normal modes, file=<control>  ***

   ***  vibrational spectroscopic data written onto$vibrational spectrum   
        file=<control>  ***

          ---------------------------------------------------
          NORMAL MODES and VIBRATIONAL FREQUENCIES (cm**(-1))
          ---------------------------------------------------

 imaginary wave numbers indicate a negative curvature of the energy surface.
 zero frequency modes have no physical meaning except being generators of
 translations and rotations. each vibrational normal mode - given in terms of
 cartesian displacement vectors of all atoms - has been normalized to unity.
 to obtain mass-weigthed normal coordinates in a.u. divide the tabulated
 modes by sqrt(reduced mass * 1822.88853).
[...]
  3   o           x   0.00084 -0.00566  0.00036 -0.00107  0.00121  0.00000
                  y   0.00193  0.00305 -0.00040  0.00091 -0.00046  0.00001
                  z  -0.00168 -0.00076  0.00009 -0.00042  0.00030 -0.00001
  4   pu          x  -0.00005  0.00019 -0.00021 -0.00001 -0.00000  0.00001
                  y   0.00003 -0.00008  0.00009 -0.00012 -0.00001 -0.00000
                  z   0.00000 -0.00001  0.00001  0.00000 -0.00000 -0.00000
  5   o           x  -0.00059  0.00039  0.00569 -0.00083 -0.00138 -0.00001
                  y  -0.00135 -0.00001 -0.00316  0.00082  0.00064 -0.00001
                  z   0.00111  0.00000  0.00078 -0.00036 -0.00037 -0.00008
  6   s           x   0.00175 -0.00058 -0.00971  0.00282  0.00372  0.00002
                  y  -0.00052 -0.00019 -0.00068 -0.00088 -0.00081 -0.00001
                  z  -0.00009  0.00003  0.00053 -0.00015 -0.00020 -0.00000
  7   c           x  -0.03378  0.01144  0.21553 -0.10514 -0.13108  0.00032
                  y   0.05340  0.01668  0.23703  0.04723  0.05112 -0.00139
                  z   0.00047 -0.00124 -0.02087  0.00514  0.00665  0.00003
  8   o           x   0.00093 -0.00551  0.00035 -0.00100  0.00115  0.00000
                  y   0.00194  0.00293 -0.00039  0.00086 -0.00042  0.00001
                  z   0.00154  0.00112 -0.00012  0.00047 -0.00038  0.00001
  9   o           x  -0.00064  0.00038  0.00547 -0.00075 -0.00128 -0.00000
                  y  -0.00135  0.00001 -0.00290  0.00074  0.00053 -0.00001
                  z  -0.00100 -0.00003 -0.00111  0.00038  0.00045  0.00009
 10   o           x   0.00002 -0.00077  0.00186  0.00017  0.00069 -0.00014
                  y   0.00042  0.00023 -0.00151  0.00050  0.00026  0.00004
                  z   0.00001  0.00003 -0.00010 -0.00000 -0.00002  0.00001
 11   o           x   0.00046 -0.00175  0.00101  0.00029 -0.00064 -0.00006
                  y  -0.00084  0.00147 -0.00043  0.00055 -0.00017  0.00002
                  z  -0.00003  0.00007 -0.00004 -0.00001  0.00002  0.00000
 12   c           x  -0.02084 -0.00237 -0.06668  0.07978  0.09718  0.05355
                  y  -0.06745 -0.02368 -0.31323 -0.12744 -0.14556  0.00475
                  z   0.00341  0.00090  0.01406 -0.00089 -0.00140 -0.00346
 13   c           x   0.07296  0.00375  0.12975 -0.18798 -0.22825 -0.02021
                  y  -0.01164  0.01083  0.12615  0.10168  0.11893 -0.04073
                  z  -0.00416 -0.00058 -0.01210  0.00844  0.01040  0.00256
 14   c           x  -0.02432 -0.01432 -0.26498  0.12080  0.15088 -0.01960
                  y   0.04774 -0.01645 -0.24002 -0.03041 -0.03092  0.02851
                  z  -0.00001  0.00142  0.02417 -0.00658 -0.00844  0.00031
 15   c           x  -0.02124  0.00333  0.08492 -0.08985 -0.10968  0.02183
                  y  -0.07695  0.02092  0.26559  0.14193  0.16382  0.00181
                  z   0.00378 -0.00087 -0.01374  0.00111  0.00165 -0.00142
 16   c           x   0.07460 -0.00361 -0.12462  0.18381  0.22338 -0.00497
                  y  -0.00646 -0.00908 -0.09484 -0.11657 -0.13742 -0.00959
                  z  -0.00447  0.00051  0.01070 -0.00782 -0.00964  0.00061
 17   h           x  -0.04886 -0.00638 -0.12296  0.06699  0.08317 -0.63201
                  y   0.22691  0.02915  0.38957  0.15359  0.17549 -0.04932
                  z  -0.00409 -0.00052 -0.00469 -0.00897 -0.01066  0.04058
 18   h           x  -0.20820  0.00699  0.02019  0.22565  0.26996  0.23408
                  y   0.12728  0.01081  0.20169 -0.09437 -0.11768  0.49573
                  z   0.00886 -0.00078 -0.00767 -0.01096 -0.01298 -0.03040
 19   h           x  -0.05238  0.02471  0.38641 -0.02443 -0.03828  0.23834
                  y   0.04205  0.01023  0.21150 -0.14566 -0.17941 -0.34203
                  z   0.00193 -0.00187 -0.03089  0.00628  0.00824 -0.00396
 20   h           x  -0.05408  0.00772  0.14434 -0.07097 -0.08852 -0.26372
                  y   0.24197 -0.02144 -0.25724 -0.18802 -0.21894 -0.02148
                  z  -0.00443  0.00021 -0.00091  0.01036  0.01245  0.01713
 21   h           x  -0.24669 -0.00505  0.02056 -0.28080 -0.33825  0.05442
                  y   0.14828 -0.01027 -0.18722  0.08827  0.11061  0.11560
                  z   0.01076  0.00072  0.00595  0.01482  0.01773 -0.00697
 22   c           x   0.03243  0.06558 -0.00637  0.09634 -0.08156  0.00911
                  y   0.10517  0.31470 -0.01751 -0.15028  0.11943  0.00082
                  z  -0.00378 -0.00979  0.00068 -0.00176  0.00165 -0.00048
 23   c           x  -0.11372 -0.12768  0.01331 -0.22664  0.19129 -0.00339
                  y   0.01795 -0.12748  0.00579  0.12058 -0.09811 -0.00685
                  z   0.00536  0.00907 -0.00079  0.00892 -0.00761  0.00031
 24   c           x   0.03788  0.26362 -0.02052  0.14702 -0.12749 -0.00331
                  y  -0.07435  0.24082 -0.01515 -0.03437  0.02415  0.00481
                  z  -0.00035 -0.01832  0.00135 -0.00671  0.00594  0.00007
 25   c           x   0.03307 -0.08380  0.00783 -0.10862  0.09215  0.00365
                  y   0.11987 -0.26722  0.01401  0.16797 -0.13490  0.00031
                  z  -0.00418  0.00979 -0.00069  0.00199 -0.00185 -0.00019
 26   c           x  -0.11637  0.12266 -0.01278  0.22165 -0.18724 -0.00086
                  y   0.00993  0.09629 -0.00341 -0.13869  0.11373 -0.00167
                  z   0.00570 -0.00816  0.00071 -0.00837  0.00714  0.00008
 27   h           x   0.07649  0.12260 -0.00980  0.08116 -0.06999 -0.10746
                  y  -0.35332 -0.39101  0.02206  0.18136 -0.14419 -0.00857
                  z   0.00334  0.00179  0.00004 -0.00775  0.00643  0.00559
 28   h           x   0.32493 -0.02253 -0.00431  0.27071 -0.22523  0.03931
                  y  -0.19784 -0.20068  0.01568 -0.11430  0.09897  0.08343
                  z  -0.01243  0.00537 -0.00011 -0.01132  0.00938 -0.00373
 29   h           x   0.08188 -0.38625  0.02611 -0.03216  0.03412  0.04026
                  y  -0.06520 -0.21072  0.01763 -0.17640  0.15097 -0.05760
                  z  -0.00280  0.02389 -0.00168  0.00544 -0.00500 -0.00083
 30   h           x   0.08464 -0.14390  0.01128 -0.08610  0.07457 -0.04408
                  y  -0.37669  0.25892 -0.01238 -0.22367  0.18123 -0.00367
                  z   0.00366  0.00185 -0.00032  0.00901 -0.00755  0.00230
 31   h           x   0.38477 -0.01801  0.00784 -0.33755  0.28273  0.00943
                  y  -0.23031  0.18637 -0.01434  0.10681 -0.09293  0.02004
                  z  -0.01470 -0.00362 -0.00004  0.01490 -0.01240 -0.00088

reduced mass(g/mol)     2.115    6.202    6.204    5.645    5.643    1.085


       mode              85       86       87       88       89       90

     frequency        3163.73  3172.42  3172.47  3181.09  3181.43  3188.64

     symmetry            a        a        a        a        a        a   

        IR               YES      YES      YES      YES      YES      YES
|dDIP/dQ|   (a.u.)     0.0007   0.0019   0.0018   0.0071   0.0029   0.0033
intensity (km/mol)       0.82     6.19     6.00    90.32    14.83    19.73
intensity (  %   )       0.12     0.91     0.88    13.31     2.19     2.91
 
       RAMAN             YES      YES      YES      YES      YES      YES
 
  1   c           x   0.00031  0.00000  0.00082  0.00030  0.00060  0.00083
                  y  -0.00139 -0.00001  0.00131 -0.00031 -0.00078  0.00042
                  z   0.00002 -0.00000 -0.00007 -0.00001 -0.00002 -0.00005
  2   s           x   0.00002  0.00000 -0.00011 -0.00002 -0.00003 -0.00007
                  y  -0.00001 -0.00001  0.00012 -0.00006 -0.00005 -0.00002
                  z  -0.00000  0.00000  0.00000  0.00000  0.00000  0.00000
  3   o           x  -0.00001  0.00000 -0.00001  0.00002  0.00000  0.00003
                  y  -0.00001  0.00001 -0.00016  0.00004 -0.00006 -0.00000
                  z  -0.00008 -0.00000  0.00012 -0.00005 -0.00010  0.00000
  4   pu          x   0.00001  0.00002  0.00002  0.00006  0.00002  0.00006
                  y  -0.00000 -0.00000 -0.00000 -0.00002 -0.00001 -0.00002
                  z  -0.00000 -0.00000 -0.00000 -0.00000 -0.00000 -0.00000
  5   o           x   0.00001 -0.00001  0.00000  0.00002  0.00001  0.00004
                  y   0.00002 -0.00016  0.00001 -0.00002  0.00007 -0.00014
                  z   0.00001  0.00012 -0.00000 -0.00011  0.00004  0.00001
  6   s           x  -0.00000 -0.00011 -0.00000 -0.00004  0.00001 -0.00020
                  y  -0.00001  0.00012 -0.00001 -0.00008 -0.00000  0.00001
                  z   0.00000  0.00001  0.00000  0.00001 -0.00000  0.00001
  7   c           x  -0.00005  0.00084  0.00001  0.00070 -0.00025  0.00240
                  y   0.00024  0.00131  0.00001 -0.00074  0.00033  0.00121
                  z  -0.00001 -0.00009 -0.00000 -0.00002  0.00001 -0.00019
  8   o           x  -0.00001  0.00000 -0.00002  0.00003  0.00001  0.00003
                  y  -0.00001  0.00001 -0.00016  0.00004 -0.00005 -0.00000
                  z   0.00009  0.00000 -0.00012  0.00004  0.00010 -0.00000
  9   o           x   0.00000 -0.00002  0.00000  0.00003  0.00001  0.00004
                  y   0.00001 -0.00016  0.00001 -0.00001  0.00006 -0.00013
                  z  -0.00001 -0.00012  0.00000  0.00010 -0.00004 -0.00001
 10   o           x  -0.00002 -0.00025 -0.00005 -0.00051  0.00005 -0.00057
                  y   0.00001  0.00006  0.00001  0.00012  0.00002  0.00015
                  z   0.00000  0.00001  0.00000  0.00003 -0.00001  0.00003
 11   o           x  -0.00012 -0.00005 -0.00024 -0.00033 -0.00038 -0.00032
                  y   0.00004  0.00001  0.00005  0.00010  0.00007  0.00010
                  z   0.00001  0.00000  0.00001  0.00001  0.00002  0.00001
 12   c           x  -0.00900 -0.05214 -0.00018  0.02906 -0.01247 -0.02085
                  y  -0.00080 -0.00400 -0.00001  0.00120 -0.00050  0.00010
                  z   0.00058  0.00335  0.00001 -0.00183  0.00079  0.00128
 13   c           x   0.00344  0.00268  0.00005  0.01492 -0.00644 -0.01666
                  y   0.00693 -0.00056  0.00008  0.03637 -0.01570 -0.03614
                  z  -0.00044 -0.00015 -0.00001 -0.00209  0.00090  0.00219
 14   c           x   0.00332 -0.02558 -0.00011  0.01307 -0.00550  0.01177
                  y  -0.00483  0.03491  0.00015 -0.02270  0.00967 -0.01185
                  z  -0.00005  0.00048  0.00000 -0.00009  0.00004 -0.00036
 15   c           x  -0.00372  0.04597  0.00024  0.03171 -0.01465 -0.03490
                  y  -0.00030  0.00340  0.00003  0.00531 -0.00230  0.00052
                  z   0.00024 -0.00298 -0.00002 -0.00215  0.00099  0.00216
 16   c           x   0.00079 -0.00959 -0.00017 -0.02082  0.00835 -0.02351
                  y   0.00150 -0.01954 -0.00037 -0.04321  0.01719 -0.05467
                  z  -0.00010  0.00120  0.00002  0.00264 -0.00105  0.00316
 17   h           x   0.10622  0.60240  0.00210 -0.32037  0.13749  0.23177
                  y   0.00829  0.04640  0.00016 -0.02302  0.00985  0.01600
                  z  -0.00682 -0.03866 -0.00013  0.02050 -0.00880 -0.01482
 18   h           x  -0.03982 -0.00652 -0.00048 -0.18911  0.08161  0.18989
                  y  -0.08433 -0.00652 -0.00098 -0.40840  0.17627  0.40486
                  z   0.00517  0.00062  0.00006  0.02482 -0.01071 -0.02474
 19   h           x  -0.04042  0.29269  0.00122 -0.17192  0.07272 -0.11093
                  y   0.05801 -0.41667 -0.00172  0.25224 -0.10679  0.15339
                  z   0.00067 -0.00498 -0.00002  0.00269 -0.00114  0.00203
 20   h           x   0.04491 -0.54375 -0.00291 -0.36855  0.16985  0.39115
                  y   0.00366 -0.04379 -0.00024 -0.03262  0.01491  0.02899
                  z  -0.00292  0.03530  0.00019  0.02403 -0.01107 -0.02529
 21   h           x  -0.00857  0.10937  0.00199  0.23204 -0.09271  0.27656
                  y  -0.01823  0.23623  0.00426  0.49896 -0.19940  0.60274
                  z   0.00110 -0.01414 -0.00026 -0.02994  0.01196 -0.03595
 22   c           x   0.05361  0.00036 -0.05231  0.01231  0.02936 -0.00722
                  y   0.00484  0.00003 -0.00410  0.00052  0.00121  0.00002
                  z  -0.00280 -0.00002  0.00272 -0.00063 -0.00151  0.00036
 23   c           x  -0.02022  0.00002  0.00254  0.00642  0.01539 -0.00567
                  y  -0.04085  0.00009 -0.00090  0.01563  0.03745 -0.01236
                  z   0.00187 -0.00000 -0.00011 -0.00065 -0.00156  0.00054
 24   c           x  -0.01964  0.00015 -0.02585  0.00536  0.01253  0.00382
                  y   0.02849 -0.00021  0.03521 -0.00935 -0.02211 -0.00372
                  z   0.00040 -0.00000  0.00057 -0.00008 -0.00017 -0.00012
 25   c           x   0.02177 -0.00024  0.04591  0.01341  0.03442 -0.01244
                  y   0.00183 -0.00001  0.00342  0.00226  0.00545  0.00011
                  z  -0.00113  0.00001 -0.00239 -0.00072 -0.00185  0.00062
 26   c           x  -0.00483 -0.00007 -0.00920 -0.00884 -0.01975 -0.00811
                  y  -0.00929 -0.00015 -0.01872 -0.01839 -0.04077 -0.01893
                  z   0.00043  0.00001  0.00084  0.00082  0.00183  0.00080
 27   h           x  -0.63267 -0.00414  0.60426 -0.13567 -0.32364  0.08027
                  y  -0.05046 -0.00033  0.04758 -0.00998 -0.02376  0.00569
                  z   0.03292  0.00022 -0.03142  0.00704  0.01680 -0.00416
 28   h           x   0.23425 -0.00042 -0.00471 -0.08113 -0.19439  0.06478
                  y   0.49713 -0.00095 -0.00260 -0.17547 -0.42056  0.13852
                  z  -0.02221  0.00004  0.00030  0.00777  0.01860 -0.00614
 29   h           x   0.23877 -0.00178  0.29592 -0.07096 -0.16657 -0.03558
                  y  -0.34169  0.00255 -0.42015  0.10392  0.24416  0.04893
                  z  -0.00490  0.00004 -0.00615  0.00141  0.00330  0.00077
 30   h           x  -0.26304  0.00278 -0.54290 -0.15588 -0.39926  0.13947
                  y  -0.02187  0.00022 -0.04463 -0.01406 -0.03571  0.01063
                  z   0.01371 -0.00014  0.02829  0.00815  0.02087 -0.00725
 31   h           x   0.05275  0.00078  0.10484  0.09856  0.21935  0.09549
                  y   0.11231  0.00164  0.22707  0.21238  0.47274  0.20857
                  z  -0.00495 -0.00007 -0.00991 -0.00929 -0.02069 -0.00906

reduced mass(g/mol)     1.085    1.088    1.088    1.091    1.091    1.095


       mode              91       92       93

     frequency        3188.99  3196.92  3197.17

     symmetry            a        a        a   

        IR               YES      YES      YES
|dDIP/dQ|   (a.u.)     0.0016   0.0086   0.0004
intensity (km/mol)       4.55   132.83     0.30
intensity (  %   )       0.67    19.58     0.04
 
       RAMAN             YES      YES      YES
 
  1   c           x  -0.00242 -0.00036 -0.00046
                  y  -0.00119  0.00017  0.00018
                  z   0.00015  0.00002  0.00002
  2   s           x   0.00019  0.00003  0.00002
                  y  -0.00004  0.00011  0.00008
                  z  -0.00001 -0.00000 -0.00000
  3   o           x  -0.00003 -0.00005 -0.00002
                  y   0.00018 -0.00010 -0.00002
                  z  -0.00001  0.00009  0.00009
  4   pu          x  -0.00003 -0.00002 -0.00000
                  y   0.00001  0.00002  0.00000
                  z   0.00000  0.00000  0.00000
  5   o           x  -0.00001 -0.00005  0.00001
                  y  -0.00011 -0.00011  0.00002
                  z   0.00000  0.00009 -0.00008
  6   s           x  -0.00006  0.00003 -0.00002
                  y   0.00004  0.00012 -0.00007
                  z   0.00000 -0.00000  0.00000
  7   c           x   0.00083 -0.00038  0.00040
                  y   0.00041  0.00019 -0.00017
                  z  -0.00006  0.00002 -0.00002
  8   o           x  -0.00002 -0.00006 -0.00003
                  y   0.00018 -0.00010 -0.00003
                  z   0.00001 -0.00008 -0.00009
  9   o           x  -0.00001 -0.00006  0.00002
                  y  -0.00011 -0.00011  0.00002
                  z  -0.00000 -0.00009  0.00008
 10   o           x  -0.00004  0.00018 -0.00006
                  y  -0.00001 -0.00010  0.00002
                  z   0.00001 -0.00001  0.00001
 11   o           x   0.00050  0.00018  0.00009
                  y  -0.00011 -0.00010 -0.00003
                  z  -0.00002 -0.00001 -0.00001
 12   c           x  -0.00693 -0.01120  0.01024
                  y   0.00006  0.00041 -0.00037
                  z   0.00043  0.00068 -0.00062
 13   c           x  -0.00577 -0.01456  0.01321
                  y  -0.01237 -0.02786  0.02529
                  z   0.00075  0.00180 -0.00163
 14   c           x   0.00469  0.02440 -0.02208
                  y  -0.00508 -0.03503  0.03173
                  z  -0.00013 -0.00040  0.00036
 15   c           x  -0.01071  0.03536 -0.03257
                  y   0.00035  0.00383 -0.00343
                  z   0.00066 -0.00233  0.00214
 16   c           x  -0.00839  0.00533 -0.00555
                  y  -0.01937  0.01488 -0.01515
                  z   0.00112 -0.00080  0.00082
 17   h           x   0.07710  0.11823 -0.10789
                  y   0.00530  0.00724 -0.00658
                  z  -0.00493 -0.00753  0.00687
 18   h           x   0.06508  0.14828 -0.13464
                  y   0.13854  0.31126 -0.28269
                  z  -0.00847 -0.01917  0.01741
 19   h           x  -0.04573 -0.26947  0.24384
                  y   0.06370  0.38626 -0.34958
                  z   0.00082  0.00450 -0.00407
 20   h           x   0.11983 -0.39177  0.36055
                  y   0.00869 -0.03390  0.03112
                  z  -0.00774  0.02551 -0.02347
 21   h           x   0.09835 -0.06885  0.07086
                  y   0.21433 -0.15296  0.15729
                  z  -0.01277  0.00906 -0.00931
 22   c           x   0.02005 -0.01021 -0.01108
                  y  -0.00011  0.00035  0.00038
                  z  -0.00101  0.00051  0.00055
 23   c           x   0.01637 -0.01327 -0.01431
                  y   0.03534 -0.02544 -0.02744
                  z  -0.00156  0.00120  0.00129
 24   c           x  -0.01279  0.02234  0.02400
                  y   0.01347 -0.03200 -0.03442
                  z   0.00037 -0.00046 -0.00049
 25   c           x   0.03216  0.03255  0.03563
                  y  -0.00082  0.00355  0.00378
                  z  -0.00160 -0.00171 -0.00187
 26   c           x   0.02430  0.00510  0.00631
                  y   0.05633  0.01415  0.01715
                  z  -0.00237 -0.00055 -0.00067
 27   h           x  -0.22299  0.10775  0.11677
                  y  -0.01574  0.00678  0.00732
                  z   0.01156 -0.00557 -0.00603
 28   h           x  -0.18541  0.13511  0.14572
                  y  -0.39582  0.28421  0.30658
                  z   0.01759 -0.01275 -0.01375
 29   h           x   0.12340 -0.24671 -0.26511
                  y  -0.17103  0.35267  0.37904
                  z  -0.00266  0.00508  0.00546
 30   h           x  -0.35963 -0.36054 -0.39436
                  y  -0.02689 -0.03180 -0.03469
                  z   0.01867  0.01883  0.02060
 31   h           x  -0.28509 -0.06557 -0.08030
                  y  -0.62273 -0.14593 -0.17856
                  z   0.02708  0.00628  0.00769

reduced mass(g/mol)     1.095    1.098    1.098
 

 <geterg> : there is no data group $energy 


         **************************************************************
         *                                                            *
         *  zero point VIBRATIONAL energy  :      0.2051533  Hartree  *
         *                                                            *
         **************************************************************




 time elapsed for vibrational analysis     0.09 sec


    ------------------------------------------------------------------------
         total  cpu-time :   0.25 seconds
         total wall-time :   0.33 seconds
    ------------------------------------------------------------------------

   ****  force : all done  ****


    2018-01-28 09:20:46.644 

