17
Energy = -1881.086498829
C    -0.0005801    3.7857597   -1.1790348 
S     0.0056634    3.0652475    0.4886909 
O     1.2338620    2.1522084    0.4225412 
O    -1.2260039    2.1561883    0.4331537 
Pu   -0.0013313   -0.0000278   -0.0000604 
O    -0.0066628    0.3756104   -1.7186038 
O    -1.2339179   -2.1540858   -0.4237216 
S    -0.0043589   -3.0653315   -0.4886842 
C     0.0014834   -3.7857004    1.1791053 
O     0.0033449   -0.3756643    1.7184846 
O     1.2259590   -2.1544627   -0.4321106 
H     0.9010451   -4.3926582    1.2869386 
H     0.0005159   -2.9493219    1.8790809 
H    -0.8936871   -4.3983831    1.2911645 
H     0.8977955    4.3932848   -1.2934082 
H    -0.0062051    2.9494405   -1.8790599 
H    -0.8969221    4.3978959   -1.2844761 
