
   OpenMP run-time library returned nthreads =  8
 operating system is UNIX !

 force (dirac-0-0.local) : TURBOMOLE V7.2 ( 21285 ) 30 Jun 2017 at 09:40:16
 Copyright (C) 2017 TURBOMOLE GmbH, Karlsruhe


    2017-09-23 05:56:51.331 



                             T U R B O M O L E   

                          a o f o r c e - program

                        using direct algorithms for

                       SCF level calculations of
                         * harmonic force constants
                         * hyperpolarizabilities
                         * IR and RAMAN intensities
                         * VCD intensities

                       DFT level calculations of
                         * harmonic force constants
                         * IR intensities
                                                   
       Stephan Boecker, Peter Deglmann, Filipp Furche and Marco Haeser
                          Quantum Chemistry Group
                          Universitaet  Karlsruhe
                                   Germany

 
 

          OpenMP Shared-Memory Parallelization:  8 CPUs.

            By: Erik P. Almaraz and Filipp Furche
            Copyright 2009-2011 by UCI and TURBOMOLE GmbH.

 
 
     References :
 
       RI-J implementation:
         Peter Deglmann, Klaus May, Filipp Furche, Reinhart Ahlrichs
                 Chem. Phys. Lett. 384:103 (2004)
 
       Efficiency, technical details:
         Peter Deglmann, Filipp Furche, Reinhart Ahlrichs
                 Chem. Phys. Lett. 362:511 (2002)
 
       Search of lowest eigenvalues by iterative diagonalization:
         Peter Deglmann, Filipp Furche
                 J. Chem. Phys. 117:9535 (2002)
 
       Vibrational circular dichroism implementation:
        Kevin Reiter, Michael Kuehn, Florian Weigend
                 J. Chem. Phys. 146:054102 (2017)  
 
 


              +--------------------------------------------------+
              | Atomic coordinate, charge and isotop information |
              +--------------------------------------------------+

                    atomic coordinates            atom    charge  isotop
         -0.00109623    7.15404902   -2.22805289    c      6.000     0
          0.01070236    5.79247839    0.92349193    s     16.000     0
          2.33166129    4.06708452    0.79848722    o      8.000     0
         -2.31681162    4.07460541    0.81854178    o      8.000     0
         -0.00251584   -0.00005245   -0.00011422    pu    94.000     0
         -0.01259082    0.70980082   -3.24769046    o      8.000     0
         -2.33176691   -4.07063216   -0.80071784    o      8.000     0
         -0.00823716   -5.79263706   -0.92347939    s     16.000     0
          0.00280326   -7.15393694    2.22818617    c      6.000     0
          0.00632091   -0.70990270    3.24746533    o      8.000     0
          2.31672669   -4.07134450   -0.81657072    o      8.000     0
          1.70272844   -8.30092107    2.43196158    h      1.000     0
          0.00097495   -5.57341065    3.55094831    h      1.000     0
         -1.68882379   -8.31173939    2.43994735    h      1.000     0
          1.69658759    8.30210511   -2.44418736    h      1.000     0
         -0.01172594    5.57363481   -3.55090869    h      1.000     0
         -1.69493719    8.31081884   -2.42730811    h      1.000     0
 
       center of nuclear mass  :   -0.00141144   -0.00005128   -0.00007638
       center of nuclear charge:   -0.00121710   -0.00004905   -0.00006855

              +--------------------------------------------------+
              |               basis set information              |
              +--------------------------------------------------+

              we will work with the 1s 3p 5d 7f 9g ... basis set
              ...i.e. with spherical basis functions...

   type   atoms  prim   cont   basis
   ---------------------------------------------------------------------------
    c        2     66     46   aug-cc-pVTZ   [5s4p3d2f|19s6p3d2f]
    s        2    122     50   aug-cc-pVTZ   [6s5p3d2f|42s17p3d2f]
    o        6     66     46   aug-cc-pVTZ   [5s4p3d2f|19s6p3d2f]
    pu       1    213    117   ecp-60-SVP(6g)   [10s9p5d4f3g|14s13p10d8f6g]
    h        6     25     23   aug-cc-pVTZ   [4s3p2d|6s3p2d]
   ---------------------------------------------------------------------------
   total:   17   1135    723
   ---------------------------------------------------------------------------

   total number of primitive shells          :  186
   total number of contracted shells         :  229
   total number of cartesian basis functions :  860
   total number of SCF-basis functions       :  723

 number of unique ecp types :                     1
 
             FOUND RI-J FLAG !
 

 NOTE: THIS IS A PRELIMINARY IMPLEMENTATION. THE RI APPROXIMATION IS
       PRESENTLY USED FOR CPKS CONTRIBUTIONS TO THE HESSIAN ONLY! SEE
       MANUAL FOR FURTHER DETAILS.

  
 AUXILIARY BASIS SET information:

              we will work with the 1s 3p 5d 7f 9g ... basis set
              ...i.e. with spherical basis functions...

   type   atoms  prim   cont   basis
   ---------------------------------------------------------------------------
    c        2     70     49   aug-cc-pVTZ   [6s4p3d1f1g|12s5p4d2f1g]
    s        2     77     51   aug-cc-pVTZ   [8s4p3d1f1g|14s5p5d2f1g]
    o        6     70     49   aug-cc-pVTZ   [6s4p3d1f1g|12s5p4d2f1g]
    pu       1    268    205   def-TZVPP   [14s7p7d6f5g2h2i|18s7p7d6f6g3h5i]
    h        6     16     11   aug-cc-pVTZ   [3s1p1d|5s2p1d]
   ---------------------------------------------------------------------------
   total:   17   1078    765
   ---------------------------------------------------------------------------

   total number of primitive shells          :  135
   total number of contracted shells         :  227
   total number of cartesian basis functions :  996
   total number of SCF-basis functions       :  765


 symmetry group of the molecule :   c1 

 the group has the following generators :
   c1(z)

    1 symmetry operations found

 there are 1 real representations :   a   

 maximum number of shells which are related by symmetry :  1


 determining totally symmetric integral contributions 
    - equivalent to irreducible tensor elements - 
 which can be formed within each triple of representations :

             representation triple      contributions

              a     a     a               1
       UHF mode switched on !

    mo occupation :
   irrep   mo's   occupied
    a      723       68
 
 number of basis functions   :                    723
 number of occupied orbitals :                     68
 
 ALPHA-Occupation:                    68
 BETA-Occupation :                    65
  MOs are in ASCII format !


 reading orbital data $uhfmo_alpha  from file alpha
 orbital characterization : scfconv=6

 reading orbital data $uhfmo_beta  from file beta
 orbital characterization : scfconv=6
 time elapsed for calculating density matrices :   1.053 sec

 number of non-frozen orbitals          :   723
 number of non-frozen occupied orbitals :    68

 number of non-frozen orbitals          :   723
 number of non-frozen occupied orbitals :    65
 Blocking parameters 
 shells:
    index      start shell   last shell  start bf    last bf    #bf 
       1             1         229             1        860    860
  
           ----------------------
               RI - INFORMATION
           ----------------------

 biggest AO integral is expected to be    25.399937282

 Threshold for integral neglect (rithr2):   0.29E-10
 Threshold for integral neglect (rithr1):   0.29E-10

 Contributions to RI integral batches: 
  neglected integral batches:                  4166
  direct contribution:                        14317
  memory contribution:                  7852
 Core memory available (ricore):               500 MiB
 Core memory needed for (P|Q) and Cholesky:      5 MiB
 Core memory used for integrals:               340 MiB
 
 ****************************************
 Memory allocated for RIDFT: 345 MiB
 ****************************************
 
  
           ------------------
           density functional
           ------------------
 PBE0 hybrid functional
 exchange:    3/4 (LDA+PBE) + 1/4 HF
 correlation: LDA (PW) + PBE

 iterations will be done with small grid
  
 spherical integration : Lebedev's spherical grid
 spherical gridsize    :                     4
    i.e. gridpoints    :                   434
 value for diffuse not defined
 radial integration    : Chebyshev 2nd kind (scaling 3)
 radial gridsize       :                     6
 integration cells     :                    17
 partition function    : becke
 partition sharpness   :                     3
  
 
 Derivatives of quadrature weights will be included
 
          Overall gridpoints after grid construction =        185991
 Ordering of quadrature gridpoints disabled.
 
 
 
 
 OCCUPIED-OCCUPIED TENSOR SPACES :

          IRREP   tensor space dimension   number of roots

           a              8849                  45
 
 OCCUPIED-VIRTUAL TENSOR SPACES :

          IRREP   tensor space dimension   number of roots

           a             87310                  45
 
 
 
 
 CONSTRUCTING integral bounds

 setting up bound for integral derivative estimation

 increment for numerical differentiation : 0.00050000
 W A R N I N G : d2ixjz =-.191012706866E-08
 
 machine precision:   2.220446049250313E-016

 integral neglect threshold       :  0.10E-09
 integral storage threshold THIZE :  0.10E-04
 integral storage threshold THIME :         5

 
 
 
 PREPARING NUMERICAL INTEGRATION
 
 Remaining core memory for DFT =                 15132 MB
 
 Memory needed per atom    =                 17354 KiB
 
     i. e.                    17 atoms per loop

 Calculating ground state density on molecular grid

 Integral of ground state total density: Na =   132.9999910928527    

 Integral of ground state spin density:  Nb =   3.000000663869916    


 
 
 CONSTRUCTING first deriv. of <mu|x,y,z|nu> -> Dip. deriv.
  dipole integral derivatives will be neglected if
  expon. factor <0.581395E-11
      ...terminated. cpu:       1.54       wall:       0.25
 
 
 
 
 CONSTRUCTING first deriv. of  <mu|nu>
                               <mu|h|nu>    -> RHS
              second deriv. of <mu|nu>      -> Hessian
                               <mu|h|nu>    -> Hessian
                               nucl. rep.   -> Hessian
     integrals are neglected if expon. factor <  5.813953488372092E-013
 
 CONSTRUCTING ECP contribution              -> RHS
 
                                            -> Hessian
      ...terminated. cpu:      89.70       wall:      86.66
 
 
 
 
 CONSTRUCTING second deriv. of 2e energy    -> Hessian
   treating Coulomb (and exchange) contribution
     integrals will be neglected if total contribution <  5.813953488372092E-009
      ...terminated. cpu:   13341.93       wall:    1670.06
   treating exchange-correlation contribution
      ...terminated. cpu:    6837.66       wall:     857.19
 
 
 
 
 CONSTRUCTING S(i,j)xi
      ...terminated. cpu:       0.64       wall:       0.36
 
 
 
 
 CONSTRUCTING <i|x,y,z|j>*S(i,j)xi          -> Dip. deriv.
      ...terminated. cpu:       7.44       wall:       0.94
 
 
 
 
 CONSTRUCTING epsilon(i)*S(i,j)xi*S(i,j)chi -> Hessian
      ...terminated. cpu:       0.10       wall:       0.01
 
 
 
 
 CONSTRUCTING G(a,i)[S(k,l)xi]              -> RHS
              G(i,j)[S(k,l)xi]*S(i,j)chi    -> Hessian
 
         Maximum core memory set to                  16000 MB
         This corresponds to                  1407 vectors in CAO basis
      ...terminated. cpu:   47627.79       wall:    5965.02
 
 
 
 
 CONSTRUCTING G(mu,nu)[D(kap,lam)]xi
 
          Maximum core memory set to                  16000 MB
          Atoms treated simultaneously :                    17
      ...terminated. cpu:   25650.00       wall:    3214.06
 
 
 
 
 CONSTRUCTING F(a,i)xi                      -> RHS
              F(i,j)xi*S(i,j)chi            -> Hessian
 
        Maximum core memory set to                 16000 MB
        This corresponds to                  2533 vectors in CAO basis
      ...terminated. cpu:      73.84       wall:      14.75
 
 
 
 
 CONSTRUCTING epsilon(i)*S(a,i)xi           -> RHS
      ...terminated. cpu:       4.02       wall:       3.64
 
 
 
 
 SOLVING CPHF equations
 
 Residuum convergence criterium   :  1.000000000000000E-005
 
 Maximum number of Davidson iterations set to                    25
  Switching to small grid
        preparing numerical integration ....
          Overall gridpoints after grid construction =         55097

 Calculating ground state density on molecular grid

 Integral of ground state total density: Na =   132.9992365595738    

 Integral of ground state spin density:  Nb =   3.000006196349061    




                       Nonorthonormal Krylov Space Iteration


 total number of roots to be determined:  45


 maximum core memory set to 16000 MB,
 corresponding to     1406 vectors in CAO basis


 maximum number of simultaneously treated vectors (including degeneracy):       45


 Iteration IRREP Converged      Max. Euclidean
                 roots          residual norm

    1       a        0        1.702318434334184D-01
 
    2       a        0        3.454464895784074D-02
 
    3       a        0        8.690919360093053D-03
 
    4       a        0        5.375341781204844D-03
 
    5       a        0        1.441408361933356D-03
 
    6       a        2        3.383508499227652D-04
 
    7       a       14        1.090141259749344D-04
 
    8       a       43        1.503016384514935D-05
 
    9       a       45        9.627323035479799D-06
 

 converged!

  Switching to fine grid
        preparing numerical integration ....
          Overall gridpoints after grid construction =        185991

 Calculating ground state density on molecular grid

 Integral of ground state total density: Na =   132.9999910928540    

 Integral of ground state spin density:  Nb =   3.000000663869942    



 Iteration IRREP Converged      Max. Euclidean
                 roots          residual norm

   10       a        0        1.373530277984532D-04
 

 NOTE: Residual norms are larger than 1.00D-05 due to mgrid option!

      ...terminated. cpu:  334844.83       wall:   42132.68
 
 
 
 
 CONSTRUCTING <a|x,y,z|i>*U(a,i)xi          -> Dip. deriv.
      ...terminated. cpu:       9.97       wall:       1.26
 
 
 
 
 CONSTRUCTING RHS(a,i)xi*U(a,i)chi          -> Hessian
      ...terminated. cpu:       1.03       wall:       0.13
 
 
 
 

            -----------------------
            permanent dipole moment
            -----------------------

                                   x                y                z
    electronic part       :    0.0833521268     0.0063958053     0.0064106792
     nuclear   part       :   -0.0827327516    -0.0062708289    -0.0063075388
     total                :    0.0006193752     0.0001249764     0.0001031403

 with reference to the point :   0.0000000        0.0000000        0.0000000
 (given in atomic units)
    | dipole |       :    0.0016272912  debye

   ***  dipole moment & cartesian dipole gradients written onto
        $dipole, $dipgrad,  file=<dipgrad>  ***

             -----------------------------------
             rotational and vibrational analysis
             -----------------------------------


            ==============================================================
            ATOMIC WEIGHTS (average over the natural occurance of isotops)
            ==============================================================
            ('*' denotes special isotop !)
              1     c                12.01115
              2     s                32.06400
              3     o                15.99940
              4     o                15.99940
              5     pu              244.00000
              6     o                15.99940
              7     o                15.99940
              8     s                32.06400
              9     c                12.01115
             10     o                15.99940
             11     o                15.99940
             12     h                 1.00797
             13     h                 1.00797
             14     h                 1.00797
             15     h                 1.00797
             16     h                 1.00797
             17     h                 1.00797

          -------------------------------------------------
          CARTESIAN FORCE CONSTANT MATRIX (hartree/bohr**2)
         (translational & rotational space projected out)
          -------------------------------------------------

   ATOM              1 c                           2 s 
                  dx        dy        dz        dx        dy        dz
   1 c     dx  0.5653802
           dy  0.0003496 0.5355790
           dz -0.0007923 0.0812727 0.3673371
   2 s     dx -0.0371218-0.0000908-0.0004245 0.5227933
           dy  0.0001100-0.0470080 0.0259485 0.0001304 0.4776219
           dz -0.0005236-0.0210539-0.1448568-0.0008962 0.0439302 0.2925955
   3 o     dx -0.0091774 0.0089491-0.0039884-0.2479068 0.1418894 0.0086525
           dy  0.0188606-0.0103751 0.0028607 0.1579054-0.1966460-0.0144690
           dz -0.0215701 0.0260811 0.0097248 0.0240773-0.0337668-0.0615382
   4 o     dx -0.0090490-0.0087397 0.0041634-0.2491804-0.1420394-0.0070831
           dy -0.0188572-0.0102810 0.0030148-0.1578950-0.1956699-0.0130629
           dz  0.0218376 0.0260775 0.0094769-0.0225694-0.0324629-0.0612401
   5 pu    dx -0.0030291 0.0000172 0.0000110 0.0232794-0.0001440-0.0000705
           dy -0.0000037 0.0007522-0.0022289-0.0001097-0.0389563-0.0039106
           dz  0.0000235 0.0021416-0.0004053-0.0001046-0.0125587 0.0101404
   6 o     dx  0.0004557-0.0000032 0.0000048-0.0033673 0.0000385 0.0000029
           dy  0.0000116-0.0001747 0.0011343 0.0000063-0.0014251 0.0029829
           dz  0.0000003-0.0004959 0.0017071 0.0000100 0.0092599-0.0048435
   7 o     dx  0.0001069-0.0000286 0.0000475-0.0009824 0.0006046 0.0000493
           dy  0.0000104-0.0002999 0.0005446-0.0007567 0.0029850-0.0003090
           dz -0.0000082-0.0000826 0.0001425-0.0000747 0.0006499-0.0002240
   8 s     dx -0.0000861 0.0000020-0.0000004 0.0008088 0.0000015 0.0000003
           dy -0.0000015 0.0002090-0.0004138-0.0000032-0.0025393 0.0000349
           dz -0.0000020-0.0000172-0.0000416-0.0000017 0.0000352 0.0000676
   9 c     dx  0.0000006 0.0000000-0.0000003-0.0000860-0.0000006-0.0000018
           dy  0.0000000-0.0000163 0.0000327-0.0000005 0.0002091-0.0000171
           dz -0.0000009 0.0000327-0.0000669-0.0000011-0.0004137-0.0000416
  10 o     dx  0.0008733-0.0000011-0.0000049-0.0035233 0.0000021 0.0000015
           dy -0.0000029-0.0003519 0.0003750 0.0000173 0.0030790-0.0004350
           dz -0.0000074 0.0002887-0.0004612 0.0000137-0.0033311-0.0023384
  11 o     dx  0.0001077 0.0000278-0.0000462-0.0009878-0.0005922-0.0000393
           dy -0.0000060-0.0003001 0.0005457 0.0007708 0.0029837-0.0003155
           dz  0.0000104-0.0000814 0.0001446 0.0000831 0.0006565-0.0002154
  12 h     dx -0.0000006 0.0000078-0.0000174-0.0000207-0.0000834 0.0000091
           dy -0.0000068-0.0000084 0.0000156 0.0000656 0.0001006-0.0000072
           dz  0.0000014 0.0000009-0.0000055 0.0000022-0.0000098-0.0000058
  13 h     dx -0.0000061 0.0000001-0.0000001 0.0000947-0.0000008-0.0000004
           dy -0.0000005 0.0000196-0.0000635-0.0000009-0.0002951 0.0000384
           dz  0.0000005-0.0000038 0.0000254-0.0000002 0.0000955 0.0000068
  14 h     dx -0.0000003-0.0000078 0.0000174-0.0000198 0.0000833-0.0000093
           dy  0.0000071-0.0000086 0.0000158-0.0000641 0.0001026-0.0000072
           dz -0.0000017 0.0000009-0.0000052-0.0000018-0.0000101-0.0000055
  15 h     dx -0.2319095-0.1262763 0.0225773-0.0021895 0.0009989-0.0012529
           dy -0.1270080-0.1296105 0.0130917-0.0083326-0.0063752-0.0030472
           dz  0.0253192 0.0154151-0.0443842 0.0187874 0.0100121 0.0033662
  16 h     dx -0.0454983-0.0011400-0.0009016 0.0007358-0.0000763-0.0001329
           dy -0.0011067-0.2072124-0.1380860 0.0000740 0.0082448 0.0127895
           dz -0.0009147-0.1438600-0.1544120-0.0002039-0.0181626-0.0344183
  17 h     dx -0.2310462 0.1269339-0.0206453-0.0023262-0.0009222 0.0012944
           dy  0.1276439-0.1309130 0.0119401 0.0082836-0.0064119-0.0031413
           dz -0.0233723 0.0142836-0.0439198-0.0186957 0.0101279 0.0035512

   ATOM              3 o                           4 o 
                  dx        dy        dz        dx        dy        dz
   3 o     dx  0.3041596
           dy -0.1547524 0.1912316
           dz  0.0011084 0.0009191 0.0470750
   4 o     dx -0.0331735-0.0133365-0.0009555 0.3051597
           dy  0.0136325 0.0359006 0.0080846 0.1544476 0.1902405
           dz  0.0013894 0.0082056 0.0136333-0.0033347-0.0004538 0.0470908
   5 pu    dx -0.0207502-0.0036068-0.0002491-0.0206711 0.0036101 0.0002872
           dy -0.0108282-0.0135843 0.0006766 0.0108278-0.0136344 0.0005836
           dz -0.0046057 0.0027720-0.0167536 0.0046574 0.0027744-0.0167955
   6 o     dx  0.0019008-0.0018316-0.0037686 0.0019457 0.0017389 0.0037253
           dy -0.0006890 0.0041288-0.0051001 0.0006570 0.0041396-0.0050981
           dz -0.0010674-0.0127026 0.0004095 0.0010061-0.0127164 0.0003737
   7 o     dx  0.0003707-0.0011101-0.0001277 0.0019459-0.0003634-0.0000252
           dy -0.0011242-0.0065953-0.0011661 0.0003499-0.0027644-0.0005262
           dz -0.0001290-0.0011666-0.0000030 0.0000091-0.0005231 0.0001075
   8 s     dx -0.0009924-0.0007611-0.0000752-0.0009778 0.0007663 0.0000828
           dy  0.0006063 0.0029821 0.0006507-0.0005903 0.0029867 0.0006559
           dz  0.0000478-0.0003109-0.0002235-0.0000408-0.0003140-0.0002159
   9 c     dx  0.0001074 0.0000094-0.0000079 0.0001070-0.0000070 0.0000106
           dy -0.0000286-0.0003000-0.0000821 0.0000279-0.0002999-0.0000818
           dz  0.0000482 0.0005445 0.0001423-0.0000455 0.0005457 0.0001448
  10 o     dx  0.0018569-0.0016140 0.0021797 0.0018313 0.0016593-0.0021431
           dy -0.0001439-0.0033804 0.0031362 0.0001502-0.0034123 0.0031495
           dz  0.0027173 0.0084572 0.0061078-0.0026650 0.0084324 0.0061490
  11 o     dx  0.0019509 0.0003439 0.0000083 0.0003787 0.0011038 0.0001254
           dy -0.0003574-0.0027609-0.0005232 0.0010897-0.0066095-0.0011784
           dz -0.0000244-0.0005260 0.0001074 0.0001239-0.0011773-0.0000084
  12 h     dx  0.0000159 0.0001011 0.0000158 0.0000180 0.0001041 0.0000157
           dy -0.0000666-0.0001027-0.0000192-0.0000349-0.0001476-0.0000219
           dz  0.0000105 0.0000540 0.0000227 0.0000054 0.0000192 0.0000209
  13 h     dx -0.0000762 0.0000279-0.0000013-0.0000765-0.0000264 0.0000022
           dy  0.0000267 0.0003358 0.0000008-0.0000254 0.0003358 0.0000011
           dz -0.0000109-0.0000911 0.0000060 0.0000106-0.0000911 0.0000049
  14 h     dx  0.0000177-0.0001042-0.0000155 0.0000155-0.0001007-0.0000155
           dy  0.0000344-0.0001496-0.0000225 0.0000660-0.0001048-0.0000197
           dz -0.0000052 0.0000193 0.0000212-0.0000101 0.0000542 0.0000240
  15 h     dx  0.0010255 0.0001878-0.0002929 0.0014321 0.0001849 0.0006631
           dy  0.0021795 0.0005800-0.0005642-0.0014093-0.0010946 0.0043771
           dz -0.0011164-0.0015812 0.0007667 0.0028760 0.0059356-0.0070153
  16 h     dx -0.0007309-0.0001848 0.0004018-0.0007318 0.0002048-0.0003367
           dy -0.0007628-0.0001734-0.0026672 0.0007461-0.0001739-0.0026693
           dz -0.0000997 0.0010685 0.0074962 0.0001729 0.0010586 0.0075076
  17 h     dx  0.0014020-0.0001345-0.0007275 0.0010263-0.0002025 0.0002854
           dy  0.0014352-0.0010913 0.0043623-0.0021867 0.0005891-0.0005383
           dz -0.0029270 0.0059465-0.0069946 0.0011099-0.0015810 0.0007417

   ATOM              5 pu                          6 o 
                  dx        dy        dz        dx        dy        dz
   5 pu    dx  0.1233212
           dy -0.0003576 0.2722924
           dz  0.0023267-0.1561234 0.9116083
   6 o     dx -0.0407545 0.0002462-0.0011831 0.0244362
           dy  0.0002247-0.0709326 0.0793025-0.0002222 0.0538244
           dz -0.0011333 0.0829536-0.4278592 0.0011691-0.0783627 0.4068474
   7 o     dx -0.0207264-0.0107975-0.0046110 0.0018599-0.0001385 0.0027074
           dy -0.0035759-0.0135453 0.0027875-0.0016101-0.0033899 0.0084390
           dz -0.0002508 0.0006790-0.0167486 0.0021766 0.0031374 0.0061067
   8 s     dx  0.0232791-0.0000450-0.0000684-0.0035228 0.0000046-0.0000035
           dy -0.0000564-0.0389566-0.0125564-0.0000095 0.0030786-0.0033314
           dz -0.0000471-0.0039079 0.0101418-0.0000010-0.0004353-0.0023380
   9 c     dx -0.0030288-0.0000097-0.0000051 0.0008732 0.0000003-0.0000021
           dy  0.0000013 0.0007519 0.0021412 0.0000019-0.0003517 0.0002887
           dz  0.0000049-0.0022288-0.0004056-0.0000045 0.0003750-0.0004612
  10 o     dx -0.0407547 0.0002179-0.0010654 0.0150730 0.0000073-0.0000238
           dy  0.0002209-0.0709327 0.0793014-0.0000003 0.0151285 0.0013384
           dz -0.0011365 0.0829528-0.4278591 0.0000139 0.0013384 0.0116868
  11 o     dx -0.0206948 0.0108587 0.0046526 0.0018281 0.0001552-0.0026751
           dy  0.0036405-0.0136724 0.0027583 0.0016622-0.0034016 0.0084510
           dz  0.0002861 0.0005805-0.0168007-0.0021456 0.0031479 0.0061489
  12 h     dx -0.0001662-0.0003995 0.0000075 0.0000379 0.0000996-0.0000961
           dy  0.0006731 0.0005840-0.0004039-0.0001112-0.0000897 0.0001725
           dz -0.0006311-0.0004820-0.0012539 0.0002100 0.0000873 0.0000711
  13 h     dx  0.0005916 0.0000020 0.0000076 0.0000309-0.0000001-0.0000015
           dy  0.0000122-0.0009654 0.0044453-0.0000033 0.0000876-0.0009054
           dz -0.0000024 0.0009555-0.0016077 0.0000013-0.0000486 0.0003588
  14 h     dx -0.0001603 0.0003983-0.0000076 0.0000367-0.0000996 0.0000959
           dy -0.0006707 0.0005905-0.0004111 0.0001119-0.0000911 0.0001757
           dz  0.0006240-0.0004868-0.0012701-0.0002099 0.0000890 0.0000734
  15 h     dx -0.0001612 0.0003978-0.0000136 0.0000089-0.0000111-0.0000043
           dy -0.0006727 0.0005871-0.0004012 0.0002598-0.0004768 0.0002470
           dz  0.0006229-0.0004867-0.0012634 0.0002457-0.0006390 0.0007510
  16 h     dx  0.0005913 0.0000021-0.0000122-0.0008483-0.0000086 0.0000059
           dy  0.0000130-0.0009653 0.0044442-0.0000101 0.0004252-0.0030648
           dz -0.0000098 0.0009555-0.0016074 0.0000044-0.0012696 0.0002116
  17 h     dx -0.0001654-0.0003999 0.0000014 0.0000059 0.0000023 0.0000124
           dy  0.0006710 0.0005872-0.0004135-0.0002579-0.0004795 0.0002534
           dz -0.0006322-0.0004820-0.0012604-0.0002415-0.0006416 0.0007558

   ATOM              7 o                           8 s 
                  dx        dy        dz        dx        dy        dz
   7 o     dx  0.3046618
           dy -0.1546483 0.1907317
           dz  0.0013575 0.0007539 0.0470863
   8 s     dx -0.2484199 0.1578853 0.0239571 0.5227925
           dy  0.1418668-0.1962394-0.0335967 0.0001326 0.4776302
           dz  0.0084946-0.0142826-0.0615103-0.0007963 0.0439140 0.2925867
   9 c     dx -0.0091917 0.0188864-0.0216626-0.0371211 0.0000625-0.0003266
           dy  0.0089359-0.0103027 0.0260268-0.0001107-0.0470085-0.0210622
           dz -0.0040153 0.0028628 0.0096780-0.0003690 0.0259398-0.1448584
  10 o     dx  0.0019083-0.0018226-0.0037578-0.0033678 0.0000240-0.0000006
           dy -0.0006883 0.0041240-0.0050983 0.0000028-0.0014251 0.0029834
           dz -0.0010480-0.0126920 0.0004100 0.0000105 0.0092601-0.0048449
  11 o     dx -0.0331744-0.0134519-0.0010115-0.2486669-0.1420658-0.0072211
           dy  0.0135173 0.0359020 0.0081000-0.1579220-0.1960844-0.0132257
           dz  0.0013306 0.0081876 0.0136322-0.0226663-0.0326087-0.0612569
  12 h     dx  0.0014041-0.0001482-0.0007210-0.0023194-0.0009176 0.0012938
           dy  0.0014409-0.0011036 0.0043698 0.0083173-0.0063781-0.0030902
           dz -0.0029282 0.0059392-0.0069795-0.0187478 0.0100155 0.0034635
  13 h     dx -0.0007335-0.0002013 0.0003995 0.0007362-0.0000525-0.0001463
           dy -0.0007676-0.0001693-0.0026637 0.0000239 0.0082449 0.0127860
           dz -0.0001068 0.0010556 0.0075142-0.0000606-0.0181659-0.0344182
  14 h     dx  0.0010136 0.0001839-0.0002836-0.0021968 0.0010039-0.0012528
           dy  0.0021827 0.0005837-0.0005452-0.0082960-0.0064081-0.0030967
           dz -0.0011193-0.0015765 0.0007380 0.0187375 0.0101265 0.0034527
  15 h     dx  0.0000177-0.0001044-0.0000153-0.0000202 0.0000836-0.0000093
           dy  0.0000343-0.0001481-0.0000221-0.0000652 0.0001011-0.0000067
           dz -0.0000053 0.0000198 0.0000214-0.0000023-0.0000106-0.0000056
  16 h     dx -0.0000764 0.0000267-0.0000011 0.0000947 0.0000003 0.0000000
           dy  0.0000262 0.0003354 0.0000009-0.0000006-0.0002951 0.0000385
           dz -0.0000103-0.0000912 0.0000053-0.0000001 0.0000955 0.0000068
  17 h     dx  0.0000157 0.0001009 0.0000157-0.0000202-0.0000832 0.0000091
           dy -0.0000665-0.0001040-0.0000192 0.0000645 0.0001020-0.0000077
           dz  0.0000102 0.0000534 0.0000233 0.0000018-0.0000094-0.0000058

   ATOM              9 c                          10 o 
                  dx        dy        dz        dx        dy        dz
   9 c     dx  0.5653815
           dy  0.0002806 0.5355952
           dz -0.0007399 0.0812594 0.3673225
  10 o     dx  0.0004556 0.0000005 0.0000079 0.0244370
           dy -0.0000081-0.0001757 0.0011343-0.0002126 0.0538279
           dz  0.0000138-0.0004954 0.0017075 0.0010656-0.0783612 0.4068469
  11 o     dx -0.0090354-0.0087515 0.0041382 0.0019385 0.0006585 0.0010252
           dy -0.0188273-0.0103478 0.0030164 0.0017490 0.0041438-0.0127280
           dz  0.0217483 0.0261352 0.0095194 0.0037369-0.0051009 0.0003740
  12 h     dx -0.2324145 0.1263396-0.0212260 0.0000071 0.0000071 0.0000088
           dy  0.1270394-0.1294466 0.0121498-0.0002601-0.0004751 0.0002475
           dz -0.0239708 0.0144781-0.0440384-0.0002423-0.0006362 0.0007502
  13 h     dx -0.0454916 0.0001700 0.0001935-0.0008485 0.0000056-0.0000069
           dy  0.0001822-0.2072367-0.1380865-0.0000066 0.0004247-0.0030656
           dz  0.0002111-0.1438605-0.1543962-0.0000000-0.0012700 0.0002117
  14 h     dx -0.2305494-0.1268665 0.0220089 0.0000077-0.0000063-0.0000078
           dy -0.1276081-0.1310730 0.0129007 0.0002579-0.0004815 0.0002532
           dz  0.0247330 0.0152390-0.0442609 0.0002451-0.0006445 0.0007568
  15 h     dx -0.0000002-0.0000078 0.0000174 0.0000368-0.0000995 0.0000964
           dy  0.0000069-0.0000084 0.0000157 0.0001121-0.0000905 0.0001725
           dz -0.0000015 0.0000010-0.0000054-0.0002097 0.0000895 0.0000725
  16 h     dx -0.0000060 0.0000000 0.0000004 0.0000309-0.0000001 0.0000020
           dy -0.0000001 0.0000196-0.0000635-0.0000022 0.0000875-0.0009052
           dz  0.0000000-0.0000038 0.0000255 0.0000009-0.0000485 0.0003587
  17 h     dx -0.0000006 0.0000078-0.0000174 0.0000377 0.0000996-0.0000955
           dy -0.0000069-0.0000086 0.0000157-0.0001110-0.0000903 0.0001757
           dz  0.0000016 0.0000009-0.0000053 0.0002100 0.0000869 0.0000718

   ATOM             11 o                          12 h 
                  dx        dy        dz        dx        dy        dz
  11 o     dx  0.3046586
           dy  0.1545539 0.1907382
           dz -0.0031106-0.0003118 0.0470765
  12 h     dx  0.0010384-0.0002063 0.0002948 0.2488575
           dy -0.0021834 0.0005851-0.0005572-0.1378849 0.1353663
           dz  0.0011074-0.0015856 0.0007708 0.0237948-0.0153348 0.0439395
  13 h     dx -0.0007293 0.0001884-0.0003392 0.0010649 0.0181941 0.0179445
           dy  0.0007409-0.0001791-0.0026717-0.0019950-0.0100059-0.0093794
           dz  0.0001656 0.0010728 0.0074898-0.0000330 0.0055969 0.0039162
  14 h     dx  0.0014300 0.0001715 0.0006695-0.0175213-0.0151841 0.0034451
           dy -0.0014030-0.0010805 0.0043684 0.0149773 0.0111179-0.0031616
           dz  0.0028748 0.0059416-0.0070321-0.0033474-0.0031158-0.0006754
  15 h     dx  0.0000157-0.0001009-0.0000157 0.0000034-0.0000043 0.0000016
           dy  0.0000661-0.0001036-0.0000197 0.0000043-0.0000066 0.0000017
           dz -0.0000105 0.0000548 0.0000234-0.0000016 0.0000017 0.0000016
  16 h     dx -0.0000763-0.0000275 0.0000025-0.0000011 0.0000036-0.0000023
           dy -0.0000259 0.0003361 0.0000009-0.0000082 0.0000108-0.0000061
           dz  0.0000113-0.0000909 0.0000057 0.0000026-0.0000031 0.0000023
  17 h     dx  0.0000180 0.0001040 0.0000158-0.0000034 0.0000021-0.0000005
           dy -0.0000350-0.0001491-0.0000223 0.0000022-0.0000003-0.0000004
           dz  0.0000054 0.0000186 0.0000208-0.0000004-0.0000004-0.0000002

   ATOM             13 h                          14 h 
                  dx        dy        dz        dx        dy        dz
  13 h     dx  0.0443633
           dy -0.0002075 0.2195106
           dz -0.0001839 0.1490710 0.1668869
  14 h     dx  0.0010800 0.0020208 0.0000085 0.2468477
           dy -0.0180995-0.0101086 0.0056858 0.1385057 0.1371075
           dz -0.0178676-0.0094985 0.0040015-0.0246525-0.0161338 0.0441782
  15 h     dx -0.0000011 0.0000082-0.0000026-0.0000034-0.0000022 0.0000005
           dy -0.0000036 0.0000108-0.0000030-0.0000021-0.0000003-0.0000004
           dz  0.0000023-0.0000062 0.0000024 0.0000005-0.0000004-0.0000002
  16 h     dx  0.0000024 0.0000000 0.0000001-0.0000011-0.0000036 0.0000023
           dy -0.0000001-0.0000206 0.0000039 0.0000082 0.0000108-0.0000061
           dz -0.0000000 0.0000039-0.0000047-0.0000026-0.0000030 0.0000023
  17 h     dx -0.0000012-0.0000082 0.0000027 0.0000033 0.0000044-0.0000017
           dy  0.0000036 0.0000108-0.0000030-0.0000043-0.0000068 0.0000018
           dz -0.0000023-0.0000060 0.0000023 0.0000016 0.0000017 0.0000015

   ATOM             15 h                          16 h 
                  dx        dy        dz        dx        dy        dz
  15 h     dx  0.2483239
           dy  0.1378340 0.1355315
           dz -0.0252709-0.0163479 0.0442988
  16 h     dx  0.0009423-0.0181434-0.0179166 0.0443703
           dy  0.0019330-0.0100144-0.0094037 0.0011998 0.2194847
           dz  0.0000505 0.0057290 0.0040464 0.0009912 0.1490703 0.1669035
  17 h     dx -0.0175212 0.0151399-0.0033193 0.0012025-0.0020836 0.0000074
           dy -0.0150216 0.0111185-0.0030541 0.0181467-0.0100999 0.0055515
           dz  0.0034707-0.0032223-0.0006762 0.0178972-0.0094762 0.0038705

   ATOM             17 h 
                  dx        dy        dz
  17 h     dx  0.2473729
           dy -0.1385608 0.1369471
           dz  0.0231631-0.0151006 0.0438234
 

   *** projected hessian written onto $hessian (projected), file=<hessian> ***

 dipole moment in principle axis system (a.u.) :
     0.0006189266     0.0001249915     0.0001057814
 norm :  6.402207925663519E-004

 rotational constants b for rotations around axis of inertia
 and optical intensities for (1 <-- 0) transition

   b   :     0.0111453293     0.0627208111     0.0116752526   (cm**(-1))
   b   :         334.1286        1880.3226         350.0153     (MHz)
  int. :     0.0000003831     0.0000000156     0.0000000112     (a.u.)

   x   :     0.9999947199     0.0009982510     0.0030925071
   y   :    -0.0010162505     0.9999825225     0.0058242608
   z   :    -0.0030866389    -0.0058273728     0.9999782570

   ***  normal modes written onto $vibrational normal modes, file=<vib_normal_modes>  ***

 keyword $vibrational reduced masses missing in file <control>


   ***  vibrational spectroscopic data written onto$vibrational spectrum   
        file=<vibspectrum>  ***

          ---------------------------------------------------
          NORMAL MODES and VIBRATIONAL FREQUENCIES (cm**(-1))
          ---------------------------------------------------

 imaginary wave numbers indicate a negative curvature of the energy surface.
 zero frequency modes have no physical meaning except being generators of
 translations and rotations. each vibrational normal mode - given in terms of
 cartesian displacement vectors of all atoms - has been normalized to unity.
 to obtain mass-weigthed normal coordinates in a.u. divide the tabulated
 modes by sqrt(reduced mass * 1822.88853).
 band intensities or cross sections refer to independent non-degenerate normal
 modes, that is, the intensities of degenerate modes have yet to be added.
 dDIP/dQ is the normal mode derivative of the dipole moment.


       mode               1        2        3        4        5        6

     frequency           0.00     0.00     0.00     0.00     0.00     0.00

     symmetry                                                             

        IR                -        -        -        -        -        - 
|dDIP/dQ|   (a.u.)     0.0000   0.0000   0.0000   0.0000   0.0000   0.0000
intensity (km/mol)       0.00     0.00     0.00     0.00     0.00     0.00
intensity (  %   )       0.00     0.00     0.00     0.00     0.00     0.00
 
       RAMAN              -        -        -        -        -        - 
 
  1   c           x  -0.25876  0.14686  0.19535  0.18037  0.05648  0.24598
                  y   0.09327  0.02775  0.20786 -0.03877 -0.07831 -0.00246
                  z  -0.07856  0.10583  0.03958 -0.09871 -0.30384 -0.01076
  2   s           x  -0.11846 -0.08914  0.10683  0.33045 -0.05680  0.13733
                  y   0.06612 -0.04306  0.20192 -0.04597  0.03283 -0.00170
                  z  -0.09082  0.07612  0.03735 -0.10238 -0.25541 -0.01003
  3   o           x  -0.10735 -0.06759  0.09611  0.28682 -0.04375  0.07966
                  y   0.08895 -0.02435  0.18359 -0.09483  0.03958 -0.08259
                  z  -0.19967  0.21797  0.09132 -0.23794 -0.10635  0.03570
  4   o           x  -0.10661 -0.06921  0.09568  0.28812 -0.04455  0.07954
                  y   0.04522 -0.05664  0.22073  0.00354  0.01794  0.07932
                  z  -0.01148 -0.14370 -0.02317  0.02596 -0.28335 -0.05461
  5   pu          x  -0.10156  0.02242  0.08326  0.15537  0.00617 -0.04648
                  y   0.07398 -0.02237  0.20374 -0.04365  0.00021 -0.00159
                  z  -0.14040 -0.05521  0.02628 -0.11440 -0.05175 -0.00814
  6   o           x  -0.23964  0.27036  0.16893 -0.01396  0.12623  0.04133
                  y   0.10199  0.05061  0.20984 -0.03628 -0.11430 -0.00243
                  z  -0.13385 -0.04003  0.02735 -0.11226 -0.07715 -0.00860
  7   o           x  -0.09582  0.11262  0.07043  0.02374  0.05617 -0.17270
                  y   0.05908 -0.02032  0.22385  0.00743 -0.03921  0.07925
                  z  -0.08135 -0.32809 -0.03864  0.00886  0.00317 -0.05189
  8   s           x  -0.08465  0.13397  0.05968 -0.01969  0.06912 -0.23029
                  y   0.08192 -0.00164  0.20550 -0.04150 -0.03236 -0.00173
                  z  -0.19028 -0.18596  0.01540 -0.12684  0.15220 -0.00611
  9   c           x   0.05565 -0.10204 -0.02884  0.13040 -0.04417 -0.33893
                  y   0.05475 -0.07246  0.19957 -0.04868  0.07877 -0.00095
                  z  -0.20251 -0.21573  0.01315 -0.13047  0.20060 -0.00539
 10   o           x   0.03652 -0.22551 -0.00241  0.32470 -0.11390 -0.13429
                  y   0.04597 -0.09537  0.19765 -0.05100  0.11472 -0.00069
                  z  -0.14690 -0.07049  0.02518 -0.11646 -0.02639 -0.00771
 11   o           x  -0.09645  0.11386  0.07082  0.02282  0.05678 -0.17242
                  y   0.10278  0.01187  0.18671 -0.09096 -0.01742 -0.08267
                  z  -0.26948  0.03374  0.07587 -0.25503  0.17993  0.03842
 12   h           x   0.07465 -0.11005 -0.04303  0.11769 -0.04640 -0.38284
                  y   0.06892 -0.06541  0.18559 -0.08512  0.09413 -0.06008
                  z  -0.28122 -0.10920  0.05290 -0.22950  0.30566  0.02805
 13   h           x   0.09438 -0.21583 -0.04878  0.23896 -0.10206 -0.30958
                  y   0.04329 -0.10223  0.19713 -0.05155  0.12539 -0.00039
                  z  -0.18876 -0.18031  0.01604 -0.12688  0.14483 -0.00601
 14   h           x   0.07507 -0.11059 -0.04331  0.11791 -0.04665 -0.38337
                  y   0.03707 -0.08881  0.21270 -0.01333  0.07811  0.05805
                  z  -0.14406 -0.37345 -0.03066 -0.03699  0.17709 -0.03783
 15   h           x  -0.27827  0.15582  0.20985  0.19241  0.05918  0.29016
                  y   0.11105  0.04424  0.19468 -0.07424 -0.07777 -0.06167
                  z  -0.13733  0.26380  0.08353 -0.19255 -0.27976  0.02180
 16   h           x  -0.29749  0.26065  0.21530  0.07181  0.11438  0.21663
                  y   0.10462  0.05744  0.21039 -0.03563 -0.12499 -0.00258
                  z  -0.09180  0.06945  0.03639 -0.10159 -0.24855 -0.01038
 17   h           x  -0.27767  0.15444  0.20951  0.19355  0.05850  0.29014
                  y   0.07912  0.02064  0.22177 -0.00247 -0.09348  0.05646
                  z   0.00000  0.00000  0.00000  0.00000 -0.40902 -0.04409

reduced mass(g/mol)    17.864   10.536   22.273   22.370    9.373    7.619


       mode               7        8        9       10       11       12

     frequency          32.87    43.73    86.31    89.06   126.86   147.08

     symmetry            a        a        a        a        a        a   

        IR               YES      YES      YES      YES      YES      YES
|dDIP/dQ|   (a.u.)     0.0005   0.0011   0.0000   0.0014   0.0014   0.0000
intensity (km/mol)       0.48     2.23     0.00     3.40     3.55     0.00
intensity (  %   )       0.13     0.58     0.00     0.88     0.92     0.00
 
       RAMAN             YES      YES      YES      YES      YES      YES
 
  1   c           x  -0.27843 -0.00192 -0.00061 -0.23652  0.00081 -0.20344
                  y   0.00089 -0.18305 -0.26448  0.00022  0.26710  0.00119
                  z   0.00163 -0.24369 -0.11374  0.00126  0.03258  0.00068
  2   s           x  -0.20598 -0.00068 -0.00016  0.08590 -0.00030  0.06318
                  y   0.00038  0.03733 -0.02329 -0.00019  0.02249  0.00069
                  z   0.00115 -0.14762 -0.00920 -0.00012 -0.07138 -0.00048
  3   o           x  -0.10255 -0.00070  0.00014  0.07801 -0.00233  0.08218
                  y   0.13988  0.02657 -0.03567  0.00645  0.03050  0.03983
                  z   0.01443 -0.02040  0.12466 -0.20446 -0.18099 -0.10293
  4   o           x  -0.10310  0.00063  0.00066  0.07975  0.00095  0.08308
                  y  -0.13942  0.02622 -0.03566 -0.00680  0.03028 -0.03865
                  z  -0.01355 -0.01992  0.12416  0.20453 -0.18142  0.10216
  5   pu          x   0.10018  0.00037  0.00003 -0.00903  0.00014 -0.00000
                  y  -0.00015  0.00667  0.00000 -0.00001 -0.04201 -0.00008
                  z  -0.00054  0.06603 -0.00002 -0.00013  0.05345  0.00010
  6   o           x   0.11881  0.00052  0.00036 -0.02675 -0.00027  0.37979
                  y  -0.00021  0.00089  0.12391  0.00020 -0.04575 -0.00013
                  z  -0.00061  0.06452  0.02463 -0.00003  0.06340 -0.00101
  7   o           x  -0.10278 -0.00065 -0.00026  0.07819 -0.00200 -0.08225
                  y   0.13967  0.02665  0.03565  0.00663  0.03061 -0.03972
                  z   0.01449 -0.02093 -0.12393 -0.20484 -0.18142  0.10245
  8   s           x  -0.20599 -0.00056 -0.00010  0.08590 -0.00009 -0.06318
                  y   0.00002  0.03732  0.02327 -0.00003  0.02253 -0.00054
                  z   0.00114 -0.14762  0.00928  0.00012 -0.07138  0.00012
  9   c           x  -0.27841 -0.00203  0.00084 -0.23653 -0.00023  0.20343
                  y   0.00053 -0.18295  0.26446  0.00090  0.26726 -0.00013
                  z   0.00161 -0.24362  0.11379  0.00165  0.03261 -0.00059
 10   o           x   0.11883  0.00013 -0.00028 -0.02674  0.00048 -0.37976
                  y  -0.00012  0.00082 -0.12389 -0.00035 -0.04578 -0.00020
                  z  -0.00059  0.06451 -0.02466 -0.00016  0.06340  0.00107
 11   o           x  -0.10289  0.00068 -0.00079  0.07958  0.00129 -0.08303
                  y  -0.13964  0.02616  0.03563 -0.00661  0.03023  0.03878
                  z  -0.01353 -0.01952 -0.12476  0.20414 -0.18110 -0.10261
 12   h           x  -0.35084 -0.00220  0.00082 -0.27375  0.00009  0.28983
                  y  -0.10775 -0.19659  0.27925 -0.02238  0.28473  0.10379
                  z  -0.00354 -0.31948  0.19776  0.18118  0.12827 -0.13728
 13   h           x  -0.17399 -0.00183  0.00063 -0.35262 -0.00038  0.21258
                  y   0.00113 -0.27346  0.36405  0.00132  0.37584 -0.00026
                  z   0.00103 -0.13489 -0.00601  0.00098 -0.09704 -0.00042
 14   h           x  -0.35149 -0.00287  0.00163 -0.27473 -0.00050  0.29113
                  y   0.10843 -0.19583  0.27881  0.02419  0.28525 -0.10356
                  z   0.00758 -0.32119  0.19910 -0.17632  0.12882  0.13537
 15   h           x  -0.35087 -0.00290 -0.00150 -0.27505  0.00120 -0.29088
                  y   0.10917 -0.19597 -0.27891  0.02358  0.28457  0.10506
                  z   0.00762 -0.32042 -0.19793 -0.17744  0.12839 -0.13527
 16   h           x  -0.17404 -0.00125  0.00026 -0.35263  0.00010 -0.21265
                  y   0.00073 -0.27363 -0.36409  0.00039  0.37566  0.00119
                  z   0.00099 -0.13491  0.00607  0.00199 -0.09701  0.00076
 17   h           x  -0.35149 -0.00224 -0.00070 -0.27339  0.00179 -0.29005
                  y  -0.10700 -0.19665 -0.27918 -0.02298  0.28508 -0.10224
                  z  -0.00347 -0.32047 -0.19885  0.18007  0.12857  0.13742

reduced mass(g/mol)    10.027    5.753    4.353    5.622    6.282    7.623


       mode              13       14       15       16       17       18

     frequency         171.83   188.69   198.30   203.24   206.66   236.00

     symmetry            a        a        a        a        a        a   

        IR               YES      YES      YES      YES      YES      YES
|dDIP/dQ|   (a.u.)     0.0000   0.0066   0.0021   0.0000   0.0000   0.0018
intensity (km/mol)       0.00    78.47     7.89     0.00     0.00     6.00
intensity (  %   )       0.00    20.41     2.05     0.00     0.00     1.56
 
       RAMAN             YES      YES      YES      YES      YES      YES
 
  1   c           x  -0.00084  0.00028  0.01013 -0.00231 -0.00019  0.02852
                  y  -0.16286  0.07131 -0.00015  0.00014 -0.12264  0.00013
                  z   0.11130 -0.08743 -0.00012  0.00006 -0.00076 -0.00003
  2   s           x   0.00000  0.00073 -0.01403  0.00646  0.00070 -0.00361
                  y  -0.31499  0.31042  0.00022 -0.00000  0.10520 -0.00011
                  z   0.02699  0.04137  0.00019 -0.00006  0.09776 -0.00008
  3   o           x   0.02768 -0.02517 -0.06125  0.04265 -0.00611 -0.07138
                  y  -0.27401  0.28436 -0.06933  0.05073  0.09719 -0.09940
                  z  -0.11071  0.18821 -0.03343  0.02731  0.15411 -0.06392
  4   o           x  -0.02836  0.02764 -0.06073  0.04226  0.00854 -0.07054
                  y  -0.27455  0.28444  0.06996 -0.05085  0.09643  0.09945
                  z  -0.10975  0.18800  0.03460 -0.02800  0.15390  0.06402
  5   pu          x  -0.00009 -0.00059  0.01551 -0.00000 -0.00010  0.01164
                  y   0.00000 -0.13191 -0.00017 -0.00011  0.00002 -0.00003
                  z  -0.00000 -0.04009 -0.00009 -0.00003  0.00000 -0.00004
  6   o           x   0.00137 -0.00056  0.02042 -0.02907 -0.00114  0.03242
                  y  -0.25306 -0.24299 -0.00116  0.00025 -0.48875  0.00035
                  z  -0.07844 -0.06595 -0.00032  0.00010 -0.09379 -0.00005
  7   o           x  -0.02679 -0.02363 -0.06119 -0.04258  0.00657 -0.07124
                  y   0.27549  0.28684 -0.06917 -0.05019 -0.09728 -0.09930
                  z   0.11123  0.18931 -0.03378 -0.02713 -0.15431 -0.06344
  8   s           x  -0.00007  0.00055 -0.01403 -0.00646 -0.00029 -0.00361
                  y   0.31499  0.31035  0.00055  0.00061 -0.10529  0.00019
                  z  -0.02700  0.04132 -0.00007  0.00018 -0.09777  0.00008
  9   c           x   0.00051 -0.00018  0.01011  0.00229  0.00001  0.02851
                  y   0.16277  0.07133  0.00038 -0.00005  0.12261  0.00018
                  z  -0.11133 -0.08741 -0.00014 -0.00003  0.00077 -0.00027
 10   o           x  -0.00128 -0.00106  0.02045  0.02906  0.00110  0.03243
                  y   0.25305 -0.24279  0.00044 -0.00077  0.48877 -0.00065
                  z   0.07843 -0.06592  0.00003 -0.00023  0.09379 -0.00019
 11   o           x   0.02924  0.02916 -0.06082 -0.04226 -0.00810 -0.07071
                  y   0.27310  0.28186  0.07015  0.05130 -0.09651  0.09960
                  z   0.10929  0.18670  0.03426  0.02813 -0.15378  0.06451
 12   h           x   0.00004 -0.00571  0.21771  0.20857  0.00222 -0.15923
                  y   0.15409  0.04527  0.32955  0.32894  0.14686 -0.30567
                  z  -0.16019 -0.19463  0.11492  0.12469  0.11815 -0.14660
 13   h           x   0.00506  0.00968 -0.37675 -0.39228 -0.00006  0.42361
                  y   0.11176 -0.03657 -0.00091 -0.00163  0.24285  0.00139
                  z  -0.04891  0.03968  0.00085  0.00128 -0.14029 -0.00115
 14   h           x  -0.00310 -0.00509  0.21926  0.21008 -0.00201 -0.16050
                  y   0.16044  0.06107 -0.32747 -0.32785  0.14737  0.30482
                  z  -0.15668 -0.18942 -0.11623 -0.12628  0.11934  0.14674
 15   h           x   0.00009 -0.00024  0.21695 -0.20790 -0.00414 -0.15835
                  y  -0.15618  0.05374 -0.32900  0.32911 -0.13840  0.30589
                  z   0.15772 -0.19127 -0.11677  0.12660 -0.11509  0.14774
 16   h           x  -0.00045  0.00182 -0.37651  0.39236  0.01091  0.42370
                  y  -0.11186 -0.03669  0.00079 -0.00093 -0.24289 -0.00082
                  z   0.04891  0.03973  0.00187 -0.00184  0.14022 -0.00209
 17   h           x  -0.00304 -0.00091  0.21982 -0.21088 -0.00846 -0.16142
                  y  -0.15855  0.05259  0.32765 -0.32782 -0.15583 -0.30468
                  z   0.15904 -0.19293  0.11425 -0.12444 -0.12229 -0.14570

reduced mass(g/mol)    15.464   20.908    1.677    1.344   12.035    2.232


       mode              19       20       21       22       23       24

     frequency         244.41   272.86   310.44   312.33   318.13   399.61

     symmetry            a        a        a        a        a        a   

        IR               YES      YES      YES      YES      YES      YES
|dDIP/dQ|   (a.u.)     0.0000   0.0030   0.0011   0.0000   0.0063   0.0048
intensity (km/mol)       0.00    16.32     2.10     0.00    71.37    40.39
intensity (  %   )       0.00     4.24     0.55     0.00    18.56    10.50
 
       RAMAN             YES      YES      YES      YES      YES      YES
 
  1   c           x   0.04129 -0.05091  0.16005 -0.15771  0.00170  0.00010
                  y   0.00005  0.00017 -0.00032  0.00036  0.03196 -0.15483
                  z  -0.00008  0.00012 -0.00061  0.00057 -0.03544  0.09585
  2   s           x  -0.00283  0.03915 -0.07085  0.07273 -0.00085  0.00049
                  y  -0.00012  0.00001  0.00008 -0.00004  0.03468  0.01716
                  z  -0.00007 -0.00023  0.00037 -0.00038 -0.01183  0.09985
  3   o           x  -0.09746  0.02034  0.00700 -0.01371 -0.01006  0.04735
                  y  -0.13433 -0.00189  0.11161 -0.12082  0.02743  0.08710
                  z  -0.09345  0.03487 -0.14666  0.14552  0.04267 -0.15118
  4   o           x  -0.09628  0.02006  0.00789 -0.01456  0.01086 -0.04837
                  y   0.13448  0.00195 -0.11170  0.12101  0.02459  0.08731
                  z   0.09383 -0.03493  0.14641 -0.14509  0.04621 -0.15084
  5   pu          x  -0.00000 -0.09654 -0.01014  0.00001 -0.00018  0.00001
                  y   0.00005  0.00007  0.00011 -0.00020 -0.10873 -0.00779
                  z   0.00002  0.00032  0.00005 -0.00005 -0.02304  0.00099
  6   o           x   0.03619  0.67010  0.03144 -0.03109  0.00141  0.00009
                  y   0.00041 -0.00045 -0.00045  0.00137  0.67632  0.01752
                  z   0.00000 -0.00208 -0.00019  0.00038  0.14239  0.01262
  7   o           x   0.09726  0.02031  0.00704  0.01370 -0.01056  0.04727
                  y   0.13427 -0.00199  0.11178  0.12072  0.02508  0.08704
                  z   0.09306  0.03469 -0.14687 -0.14505  0.04505 -0.15126
  8   s           x   0.00283  0.03916 -0.07097 -0.07261  0.00039  0.00036
                  y  -0.00022 -0.00006 -0.00015 -0.00006  0.03468  0.01716
                  z   0.00006 -0.00011  0.00021  0.00020 -0.01186  0.09983
  9   c           x  -0.04127 -0.05093  0.16033  0.15743 -0.00088  0.00033
                  y  -0.00037 -0.00007 -0.00009 -0.00004  0.03197 -0.15480
                  z   0.00041  0.00023 -0.00045 -0.00053 -0.03545  0.09584
 10   o           x  -0.03617  0.67013  0.03150  0.03106  0.00080  0.00001
                  y  -0.00002 -0.00061 -0.00047  0.00120  0.67638  0.01751
                  z   0.00009 -0.00202 -0.00019  0.00016  0.14240  0.01262
 11   o           x   0.09647  0.02006  0.00788  0.01454  0.01036 -0.04844
                  y  -0.13457  0.00190 -0.11190 -0.12067  0.02692  0.08731
                  z  -0.09419 -0.03510  0.14673  0.14506  0.04384 -0.15071
 12   h           x   0.13212 -0.04986  0.28634  0.28584 -0.00010 -0.01249
                  y   0.28527  0.01761  0.14193  0.14593  0.03732 -0.21207
                  z   0.15210  0.08957 -0.25177 -0.24991 -0.01992 -0.10455
 13   h           x  -0.42470 -0.13170  0.26445  0.25650 -0.00168  0.00233
                  y  -0.00165 -0.00028 -0.00019 -0.00016  0.03897 -0.38247
                  z   0.00138  0.00035 -0.00018 -0.00023 -0.04028  0.36467
 14   h           x   0.13325 -0.05016  0.28838  0.28789 -0.00276  0.01110
                  y  -0.28496 -0.01774 -0.14135 -0.14522  0.03848 -0.20995
                  z  -0.15211 -0.08893  0.24951  0.24751 -0.02256 -0.10532
 15   h           x  -0.13121 -0.05045  0.28775 -0.28824  0.00184  0.01110
                  y   0.28565 -0.01752 -0.14207  0.14656  0.03641 -0.21159
                  z   0.15304 -0.08911  0.24903 -0.24798 -0.01827 -0.10509
 16   h           x   0.42482 -0.13168  0.26398 -0.25695  0.00316  0.00033
                  y  -0.00088  0.00041 -0.00050  0.00054  0.03894 -0.38258
                  z  -0.00207  0.00049 -0.00124  0.00117 -0.04026  0.36472
 17   h           x  -0.13422 -0.04947  0.28598 -0.28650  0.00446 -0.01250
                  y  -0.28469  0.01787  0.14076 -0.14515  0.03936 -0.21048
                  z  -0.15128  0.08934 -0.25135  0.25029 -0.02426 -0.10485

reduced mass(g/mol)     3.257   16.987    3.982    4.062   18.632    4.364


       mode              25       26       27       28       29       30

     frequency         403.51   529.84   542.07   663.21   663.67   825.81

     symmetry            a        a        a        a        a        a   

        IR               YES      YES      YES      YES      YES      YES
|dDIP/dQ|   (a.u.)     0.0000   0.0086   0.0000   0.0066   0.0000   0.0000
intensity (km/mol)       0.00   130.45     0.00    76.86     0.00     0.00
intensity (  %   )       0.00    33.92     0.00    19.99     0.00     0.00
 
       RAMAN             YES      YES      YES      YES      YES      YES
 
  1   c           x  -0.00010 -0.00010  0.00013 -0.00090  0.00090  0.00010
                  y   0.15224  0.00466 -0.01751  0.13847 -0.13759 -0.02234
                  z  -0.09473 -0.01409  0.02579 -0.26210  0.26182  0.01813
  2   s           x  -0.00051  0.00060 -0.00056  0.00051 -0.00051 -0.00004
                  y  -0.02457  0.15613 -0.14498 -0.05825  0.05860 -0.02072
                  z  -0.09891  0.07256 -0.07105  0.13962 -0.13939 -0.00627
  3   o           x  -0.04058 -0.28346  0.28868  0.03412 -0.03842 -0.07492
                  y  -0.08379 -0.16446  0.17361 -0.00372  0.00122 -0.00291
                  z   0.15176 -0.06848  0.06427 -0.01481  0.01434 -0.00804
  4   o           x   0.04167  0.28223 -0.28751 -0.03425  0.03854  0.07477
                  y  -0.08405 -0.16519  0.17442 -0.00359  0.00107 -0.00318
                  z   0.15151 -0.07090  0.06674 -0.01448  0.01397 -0.00869
  5   pu          x   0.00001  0.00001 -0.00001 -0.00000 -0.00000  0.00000
                  y  -0.00000  0.00382 -0.00000  0.00180  0.00000 -0.00000
                  z  -0.00000  0.00192  0.00000 -0.00073 -0.00000  0.00000
  6   o           x  -0.00014  0.00003  0.00011  0.00003 -0.00006  0.00203
                  y  -0.04220  0.00520 -0.01598 -0.00378  0.00028 -0.14404
                  z  -0.01519  0.00097  0.04925  0.01044 -0.01820  0.67969
  7   o           x   0.04055 -0.28308 -0.28832  0.03407  0.03855  0.07479
                  y   0.08380 -0.16470 -0.17389 -0.00362 -0.00112  0.00305
                  z  -0.15191 -0.06882 -0.06459 -0.01473 -0.01432  0.00809
  8   s           x   0.00035  0.00022  0.00021  0.00046  0.00047  0.00008
                  y   0.02458  0.15614  0.14498 -0.05809 -0.05873  0.02072
                  z   0.09893  0.07255  0.07103  0.13927  0.13975  0.00627
  9   c           x   0.00035  0.00006  0.00002 -0.00097 -0.00098  0.00001
                  y  -0.15226  0.00466  0.01750  0.13810  0.13792  0.02234
                  z   0.09476 -0.01409 -0.02579 -0.26145 -0.26250 -0.01813
 10   o           x   0.00008 -0.00000 -0.00014  0.00002  0.00006 -0.00191
                  y   0.04222  0.00521  0.01598 -0.00378 -0.00029  0.14404
                  z   0.01519  0.00097 -0.04925  0.01039  0.01823 -0.67970
 11   o           x  -0.04172  0.28264  0.28786 -0.03410 -0.03858 -0.07490
                  y   0.08405 -0.16497 -0.17414 -0.00368 -0.00118  0.00303
                  z  -0.15143 -0.07054 -0.06639 -0.01448 -0.01406  0.00864
 12   h           x  -0.01235 -0.00888 -0.00923 -0.01525 -0.01510 -0.00472
                  y  -0.20995 -0.04583 -0.03170  0.08989  0.08994  0.01156
                  z  -0.10811 -0.22711 -0.23313 -0.42562 -0.42595 -0.03176
 13   h           x   0.00232  0.00123  0.00116 -0.00067 -0.00068 -0.00001
                  y  -0.38246 -0.24390 -0.23002 -0.01916 -0.01701 -0.02846
                  z   0.36692  0.28032  0.26620 -0.07532 -0.07883  0.03785
 14   h           x   0.01106  0.00756  0.00786  0.01318  0.01306  0.00436
                  y  -0.20793 -0.04493 -0.03078  0.08931  0.08933  0.01205
                  z  -0.10890 -0.22837 -0.23434 -0.42659 -0.42691 -0.03219
 15   h           x  -0.01098  0.00715 -0.00748  0.01239 -0.01219 -0.00447
                  y   0.20940 -0.04567  0.03154  0.08987 -0.08945 -0.01164
                  z   0.10861 -0.22765  0.23366 -0.42713  0.42528  0.03186
 16   h           x  -0.00038  0.00066 -0.00064 -0.00022  0.00022 -0.00023
                  y   0.38242 -0.24391  0.23004 -0.01920  0.01696  0.02845
                  z  -0.36683  0.28028 -0.26619 -0.07552  0.07864 -0.03784
 17   h           x   0.01243 -0.00929  0.00961 -0.01611  0.01590  0.00461
                  y   0.20836 -0.04504  0.03090  0.08985 -0.08942 -0.01197
                  z   0.10838 -0.22781  0.23382 -0.42722  0.42538  0.03208

reduced mass(g/mol)     4.324    9.577    9.779    4.443    4.473   15.870


       mode              31       32       33       34       35       36

     frequency         901.11   914.89   914.99   935.93   937.61   998.42

     symmetry            a        a        a        a        a        a   

        IR               YES      YES      YES      YES      YES      YES
|dDIP/dQ|   (a.u.)     0.0129   0.0023   0.0000   0.0000   0.0119   0.0147
intensity (km/mol)     294.17     9.53     0.00     0.00   249.68   384.53
intensity (  %   )      76.50     2.48     0.00     0.00    64.93   100.00
 
       RAMAN             YES      YES      YES      YES      YES      YES
 
  1   c           x  -0.00006  0.10559 -0.10834 -0.00054 -0.00054 -0.00029
                  y   0.07156 -0.00024  0.00024 -0.09184 -0.09050 -0.07876
                  z   0.02390 -0.00049  0.00050 -0.05914 -0.05998 -0.06532
  2   s           x  -0.00000  0.00022 -0.00001  0.00017  0.00018  0.00028
                  y   0.02123 -0.00004  0.00005 -0.02443 -0.02882  0.14885
                  z  -0.01975  0.00001 -0.00001  0.04137  0.04140  0.04988
  3   o           x   0.05252 -0.02839  0.02868 -0.06003 -0.06546  0.14216
                  y  -0.03584  0.02933 -0.03024  0.04801  0.05091 -0.12595
                  z   0.00458 -0.01414  0.01446 -0.02160 -0.02283 -0.03031
  4   o           x  -0.05255 -0.02822  0.02849  0.06001  0.06540 -0.14252
                  y  -0.03558 -0.02912  0.03002  0.04785  0.05070 -0.12530
                  z   0.00495  0.01437 -0.01469 -0.02214 -0.02342 -0.02901
  5   pu          x   0.00020 -0.00006  0.00000  0.00000  0.00003 -0.00000
                  y  -0.01511 -0.00000  0.00000  0.00000 -0.00182 -0.00127
                  z   0.06745  0.00001 -0.00002 -0.00000  0.00918 -0.00118
  6   o           x  -0.00155  0.00007  0.00009 -0.00005 -0.00021  0.00003
                  y   0.10541  0.00003 -0.00003  0.00609  0.01437 -0.00058
                  z  -0.50192 -0.00012  0.00014 -0.01782 -0.06610  0.00779
  7   o           x   0.05248 -0.02904 -0.02787  0.06006 -0.06543  0.14211
                  y  -0.03565  0.02996  0.02935 -0.04789  0.05074 -0.12559
                  z   0.00457 -0.01457 -0.01415  0.02166 -0.02288 -0.03010
  8   s           x  -0.00003  0.00022  0.00000 -0.00011  0.00010  0.00035
                  y   0.02123  0.00003  0.00003  0.02443 -0.02881  0.14885
                  z  -0.01975  0.00007  0.00008 -0.04139  0.04139  0.04986
  9   c           x   0.00023  0.10836  0.10558  0.00026 -0.00025 -0.00041
                  y   0.07157 -0.00001 -0.00005  0.09187 -0.09047 -0.07876
                  z   0.02390 -0.00047 -0.00047  0.05915 -0.05996 -0.06531
 10   o           x  -0.00139  0.00007 -0.00009  0.00005 -0.00018  0.00002
                  y   0.10541  0.00001 -0.00003 -0.00609  0.01436 -0.00058
                  z  -0.50190 -0.00003  0.00013  0.01785 -0.06609  0.00779
 11   o           x  -0.05260 -0.02903 -0.02783 -0.06002  0.06539 -0.14257
                  y  -0.03578 -0.03002 -0.02938 -0.04799  0.05084 -0.12566
                  z   0.00497  0.01469  0.01426  0.02211 -0.02336 -0.02920
 12   h           x  -0.03269 -0.09466 -0.09223 -0.04999  0.04961  0.04968
                  y  -0.01810 -0.21437 -0.20886 -0.05196  0.05313  0.06568
                  z  -0.17140  0.42281  0.41214 -0.27341  0.27386  0.27968
 13   h           x   0.00079 -0.17751 -0.17297  0.00140 -0.00142 -0.00080
                  y  -0.20440  0.00032  0.00042 -0.27464  0.27023  0.22560
                  z   0.34055 -0.00123 -0.00138  0.48589 -0.48085 -0.41030
 14   h           x   0.03143 -0.09835 -0.09586  0.04849 -0.04815 -0.04790
                  y  -0.01637  0.21403  0.20855 -0.05022  0.05150  0.06342
                  z  -0.17371 -0.42025 -0.40946 -0.27644  0.27681  0.28358
 15   h           x   0.03150 -0.09554  0.09805 -0.04772 -0.04738 -0.04747
                  y  -0.01807  0.20901 -0.21446  0.05118  0.05242  0.06515
                  z  -0.17153 -0.41042  0.42122  0.27529  0.27584  0.28107
 16   h           x   0.00173 -0.17297  0.17749 -0.00159 -0.00157 -0.00184
                  y  -0.20441  0.00038 -0.00038  0.27462  0.27036  0.22564
                  z   0.34049  0.00101 -0.00105 -0.48575 -0.48098 -0.41029
 17   h           x  -0.03264 -0.09255  0.09498  0.05074  0.05042  0.05013
                  y  -0.01636 -0.20853  0.21397  0.05093  0.05219  0.06390
                  z  -0.17354  0.41107 -0.42187  0.27441  0.27500  0.28219

reduced mass(g/mol)    10.476    1.374    1.373    1.807    2.027    4.986


       mode              37       38       39       40       41       42

     frequency        1006.03  1021.32  1023.67  1282.64  1282.78  1437.35

     symmetry            a        a        a        a        a        a   

        IR               YES      YES      YES      YES      YES      YES
|dDIP/dQ|   (a.u.)     0.0000   0.0000   0.0139   0.0047   0.0000   0.0019
intensity (km/mol)       0.00     0.00   344.43    38.92     0.00     6.11
intensity (  %   )       0.00     0.00    89.57    10.12     0.00     1.59
 
       RAMAN             YES      YES      YES      YES      YES      YES
 
  1   c           x   0.00027  0.06418  0.06444 -0.00035 -0.00035 -0.00021
                  y   0.07701 -0.00005 -0.00010  0.03677  0.03716 -0.04016
                  z   0.06371 -0.00017 -0.00021 -0.08998 -0.09062 -0.01300
  2   s           x  -0.00024 -0.27424 -0.27308 -0.00001 -0.00001 -0.00003
                  y  -0.15860  0.00013  0.00022 -0.00328 -0.00376 -0.00405
                  z  -0.04868  0.00111  0.00113  0.00035  0.00036 -0.00323
  3   o           x  -0.14897  0.26630  0.26778 -0.00274 -0.00296  0.00049
                  y   0.14093 -0.17910 -0.17529  0.00293  0.00360  0.00101
                  z   0.03155 -0.01601 -0.01568  0.00074  0.00075  0.00175
  4   o           x   0.14930  0.26772  0.26897  0.00276  0.00299 -0.00047
                  y   0.14019  0.17887  0.17487  0.00292  0.00359  0.00101
                  z   0.03019  0.01378  0.01339  0.00072  0.00073  0.00175
  5   pu          x   0.00000  0.00000 -0.00363 -0.00000 -0.00000 -0.00000
                  y  -0.00000  0.00000 -0.00000  0.00013  0.00000  0.00009
                  z  -0.00000  0.00001  0.00003 -0.00058 -0.00000 -0.00025
  6   o           x  -0.00012  0.00023  0.00938  0.00001  0.00000  0.00000
                  y   0.00891  0.00004  0.00002 -0.00150 -0.00108 -0.00074
                  z  -0.03537 -0.00013 -0.00012  0.00362  0.00121  0.00156
  7   o           x   0.14897 -0.26737  0.26834 -0.00277  0.00296  0.00048
                  y  -0.14057  0.17931 -0.17518  0.00295 -0.00358  0.00102
                  z  -0.03134  0.01582 -0.01546  0.00075 -0.00075  0.00178
  8   s           x   0.00028  0.27446 -0.27287  0.00000 -0.00000  0.00001
                  y   0.15861 -0.00019  0.00023 -0.00331  0.00374 -0.00409
                  z   0.04867 -0.00096  0.00097  0.00035 -0.00036 -0.00326
  9   c           x  -0.00037 -0.06423  0.06439 -0.00034  0.00034  0.00019
                  y  -0.07702 -0.00004  0.00001  0.03699 -0.03693 -0.04062
                  z  -0.06371  0.00025 -0.00028 -0.09052  0.09008 -0.01314
 10   o           x   0.00010 -0.00024  0.00938  0.00001 -0.00000  0.00000
                  y  -0.00891 -0.00003 -0.00000 -0.00151  0.00107 -0.00074
                  z   0.03538 -0.00004 -0.00013  0.00363 -0.00119  0.00157
 11   o           x  -0.14931 -0.26707  0.26800  0.00277 -0.00296 -0.00048
                  y  -0.14056 -0.17894  0.17471  0.00295 -0.00358  0.00102
                  z  -0.03038 -0.01397  0.01356  0.00073 -0.00073  0.00176
 12   h           x   0.04867  0.07820 -0.07809 -0.11471  0.11432  0.27260
                  y   0.06641  0.14138 -0.14061 -0.06858  0.06860  0.38276
                  z   0.28235 -0.26275  0.26595  0.37735 -0.37478  0.02093
 13   h           x  -0.00081  0.15381 -0.15101  0.00173 -0.00173 -0.00011
                  y   0.21431  0.00014 -0.00008 -0.28492  0.28332 -0.18212
                  z  -0.39332  0.00028 -0.00042  0.30279 -0.30118  0.16557
 14   h           x  -0.04695  0.08067 -0.08062  0.11693 -0.11653 -0.27514
                  y   0.06433 -0.14134  0.14066 -0.06790  0.06792  0.38174
                  z   0.28600  0.26120 -0.26412  0.37680 -0.37422  0.02336
 15   h           x   0.04648 -0.08023 -0.08032  0.11682  0.11782 -0.26966
                  y  -0.06598  0.14133  0.14086 -0.06817 -0.06901  0.37850
                  z  -0.28356 -0.26190 -0.26522  0.37417  0.37611  0.02305
 16   h           x   0.00180 -0.15369 -0.15113  0.00077  0.00077  0.00078
                  y  -0.21433  0.00007  0.00018 -0.28323 -0.28505 -0.18007
                  z   0.39328  0.00138  0.00116  0.30095  0.30297  0.16368
 17   h           x  -0.04916 -0.07852 -0.07853 -0.11343 -0.11442  0.27190
                  y  -0.06471 -0.14122 -0.14068 -0.06755 -0.06840  0.37738
                  z  -0.28476  0.26160  0.26524  0.37546  0.37741  0.02079

reduced mass(g/mol)     5.553   11.988   11.899    1.219    1.220    1.050


       mode              43       44       45       46       47       48

     frequency        1437.47  1445.83  1445.83  3040.72  3040.87  3148.73

     symmetry            a        a        a        a        a        a   

        IR               YES      YES      YES      YES      YES      YES
|dDIP/dQ|   (a.u.)     0.0000   0.0009   0.0021   0.0056   0.0000   0.0000
intensity (km/mol)       0.00     1.30     7.79    55.93     0.00     0.00
intensity (  %   )       0.00     0.34     2.03    14.55     0.00     0.00
 
       RAMAN             YES      YES      YES      YES      YES      YES
 
  1   c           x  -0.00021 -0.05898 -0.02482 -0.00012 -0.00012 -0.06645
                  y  -0.04055  0.00019  0.00008  0.01116  0.01104  0.00031
                  z  -0.01326  0.00032  0.00013 -0.02772 -0.02740  0.00039
  2   s           x  -0.00003 -0.00377 -0.00148  0.00000  0.00000 -0.00053
                  y  -0.00428  0.00002  0.00000 -0.00006 -0.00002  0.00000
                  z  -0.00326  0.00003  0.00001  0.00014  0.00013  0.00000
  3   o           x   0.00047  0.00028 -0.00001 -0.00017 -0.00017  0.00032
                  y   0.00132  0.00042  0.00026  0.00007  0.00000 -0.00009
                  z   0.00178 -0.00028 -0.00012 -0.00002 -0.00002 -0.00013
  4   o           x  -0.00044  0.00027 -0.00001  0.00017  0.00017  0.00032
                  y   0.00132 -0.00042 -0.00025  0.00007 -0.00000  0.00009
                  z   0.00179  0.00027  0.00011 -0.00002 -0.00002  0.00012
  5   pu          x  -0.00000  0.00001  0.00003  0.00000 -0.00000  0.00000
                  y   0.00000  0.00000 -0.00000 -0.00001  0.00000 -0.00000
                  z  -0.00000 -0.00000  0.00000  0.00003 -0.00000 -0.00000
  6   o           x   0.00000 -0.00074 -0.00024 -0.00000 -0.00000  0.00001
                  y  -0.00058 -0.00000 -0.00000  0.00002 -0.00003  0.00000
                  z   0.00052  0.00002 -0.00000 -0.00026 -0.00013  0.00000
  7   o           x  -0.00045 -0.00020  0.00018 -0.00017  0.00017 -0.00032
                  y  -0.00130 -0.00012  0.00047  0.00007 -0.00000  0.00009
                  z  -0.00177  0.00011 -0.00026 -0.00002  0.00002  0.00012
  8   s           x  -0.00001  0.00165 -0.00369  0.00000 -0.00000  0.00053
                  y   0.00423  0.00001 -0.00002 -0.00006  0.00002  0.00000
                  z   0.00322  0.00000 -0.00001  0.00014 -0.00013  0.00000
  9   c           x  -0.00018  0.02478 -0.05900 -0.00006  0.00006  0.06649
                  y   0.04009  0.00013 -0.00030  0.01104 -0.01116  0.00056
                  z   0.01311 -0.00005  0.00013 -0.02742  0.02770  0.00001
 10   o           x   0.00000  0.00036 -0.00069 -0.00000  0.00000 -0.00001
                  y   0.00057 -0.00000  0.00001  0.00002  0.00003  0.00000
                  z  -0.00050  0.00001 -0.00002 -0.00026  0.00014  0.00000
 11   o           x   0.00045 -0.00020  0.00019  0.00017 -0.00017 -0.00032
                  y  -0.00131  0.00012 -0.00048  0.00007 -0.00000 -0.00009
                  z  -0.00175 -0.00012  0.00029 -0.00002  0.00002 -0.00012
 12   h           x  -0.26944 -0.02933  0.06987  0.33831 -0.34198 -0.40642
                  y  -0.37836 -0.09611  0.22877 -0.22151  0.22393  0.28111
                  z  -0.02086 -0.15349  0.36496  0.03360 -0.03397 -0.04740
 13   h           x   0.00006 -0.28708  0.68308 -0.00039  0.00039  0.01390
                  y   0.18037 -0.00073  0.00173  0.31482 -0.31823 -0.00267
                  z  -0.16408  0.00050 -0.00120  0.25468 -0.25734 -0.00233
 14   h           x   0.27193 -0.02861  0.06816 -0.33721  0.34087 -0.40671
                  y  -0.37733  0.09509 -0.22634 -0.22401  0.22646 -0.28514
                  z  -0.02321  0.15364 -0.36532  0.03526 -0.03565  0.04962
 15   h           x  -0.27264  0.06687  0.02813 -0.34173 -0.33808  0.40638
                  y   0.38273 -0.22807 -0.09589 -0.22423 -0.22186  0.28165
                  z   0.02344 -0.36559 -0.15358  0.03647  0.03609 -0.05042
 16   h           x   0.00079  0.68304  0.28715  0.00210  0.00208 -0.01390
                  y  -0.18244 -0.00152 -0.00065  0.31821  0.31481 -0.00102
                  z   0.16593 -0.00365 -0.00152  0.25746  0.25461 -0.00084
 17   h           x   0.27491  0.07111  0.02994  0.34108  0.33744  0.40635
                  y   0.38159  0.22691  0.09545 -0.22611 -0.22371 -0.28433
                  z   0.02117  0.36485  0.15328  0.03310  0.03275  0.04650

reduced mass(g/mol)     1.050    1.054    1.054    1.027    1.027    1.105


       mode              49       50       51

     frequency        3148.76  3157.97  3157.97

     symmetry            a        a        a   

        IR               YES      YES      YES
|dDIP/dQ|   (a.u.)     0.0037   0.0008   0.0003
intensity (km/mol)      24.35     1.15     0.19
intensity (  %   )       6.33     0.30     0.05
 
       RAMAN             YES      YES      YES
 
  1   c           x   0.06648  0.00057 -0.00024
                  y  -0.00031  0.08088 -0.03417
                  z  -0.00039  0.03318 -0.01402
  2   s           x   0.00053  0.00000 -0.00000
                  y  -0.00000  0.00035 -0.00014
                  z  -0.00000  0.00045 -0.00019
  3   o           x  -0.00034  0.00007 -0.00003
                  y   0.00010 -0.00019  0.00007
                  z   0.00013 -0.00014  0.00006
  4   o           x  -0.00034 -0.00007  0.00003
                  y  -0.00009 -0.00019  0.00007
                  z  -0.00012 -0.00015  0.00007
  5   pu          x   0.00001 -0.00000 -0.00000
                  y  -0.00000 -0.00001 -0.00000
                  z  -0.00000 -0.00003 -0.00001
  6   o           x  -0.00003  0.00000 -0.00000
                  y  -0.00000  0.00009 -0.00003
                  z  -0.00000  0.00031 -0.00008
  7   o           x  -0.00033  0.00003  0.00007
                  y   0.00009 -0.00008 -0.00018
                  z   0.00012 -0.00006 -0.00015
  8   s           x   0.00053 -0.00000 -0.00000
                  y   0.00000  0.00015  0.00035
                  z   0.00000  0.00019  0.00045
  9   c           x   0.06645 -0.00029 -0.00068
                  y   0.00056  0.03417  0.08088
                  z   0.00001  0.01401  0.03318
 10   o           x  -0.00003  0.00000  0.00000
                  y   0.00000  0.00005  0.00008
                  z   0.00000  0.00016  0.00027
 11   o           x  -0.00034 -0.00003 -0.00007
                  y  -0.00009 -0.00008 -0.00018
                  z  -0.00012 -0.00006 -0.00015
 12   h           x  -0.40621  0.13409  0.31735
                  y   0.28098 -0.08476 -0.20058
                  z  -0.04738  0.01677  0.03967
 13   h           x   0.01391  0.00024  0.00057
                  y  -0.00266 -0.24092 -0.57037
                  z  -0.00233 -0.20523 -0.48592
 14   h           x  -0.40650 -0.13090 -0.30983
                  y  -0.28500 -0.08382 -0.19837
                  z   0.04959  0.01708  0.04042
 15   h           x  -0.40658 -0.31513  0.13309
                  y  -0.28180 -0.19953  0.08427
                  z   0.05045  0.04175 -0.01763
 16   h           x   0.01392 -0.00386  0.00163
                  y   0.00102 -0.57031  0.24093
                  z   0.00083 -0.48593  0.20530
 17   h           x  -0.40654  0.31210 -0.13182
                  y   0.28448 -0.19949  0.08425
                  z  -0.04653  0.03835 -0.01619

reduced mass(g/mol)     1.105    1.107    1.107
 

         **************************************************************
         *                                                            *
         *  zero point VIBRATIONAL energy  :      0.0977275  Hartree  *
         *    SCF-energy                   :  -1881.0864988           *
         *    SCF + E(vib0)                :  -1880.9887713           *
         *                                                            *
         **************************************************************




 time elapsed for vibrational analysis     0.25 sec


    ------------------------------------------------------------------------
         total  cpu-time :   4 days 23 hours 14 minutes and  8 seconds
         total wall-time : 15 hours  4 minutes and 48 seconds
    ------------------------------------------------------------------------

   ****  force : all done  ****


    2017-09-23 21:01:39.724 

aoforce ended normally 
