17
Energy = -1804.159914469
C     1.4884971   -3.6475970    0.0000000 
S     2.3432878   -2.0477211    0.0000000 
O     1.7256768   -1.3698523    1.2308769 
O     1.7256768   -1.3698523   -1.2308769 
U    -0.0000000    0.0000000    0.0000000 
O    -1.0759997   -1.4430130    0.0000000 
O    -1.7256768    1.3698523   -1.2308769 
S    -2.3432878    2.0477211    0.0000000 
C    -1.4884971    3.6475970    0.0000000 
O     1.0759997    1.4430130    0.0000000 
O    -1.7256768    1.3698523    1.2308769 
H    -1.7849598    4.1918618    0.8972842 
H    -0.4198919    3.4270021    0.0000000 
H    -1.7849598    4.1918618   -0.8972842 
H     1.7849598   -4.1918618    0.8972842 
H     0.4198919   -3.4270021    0.0000000 
H     1.7849598   -4.1918618   -0.8972842 
