
   OpenMP run-time library returned nthreads = 16
 operating system is UNIX !

 force (u-0-2.local) : TURBOMOLE V7.3.1 () 25 Feb 2019 at 10:13:53
 Copyright (C) 2019 TURBOMOLE GmbH, Karlsruhe


    2019-12-03 17:42:40.106 



                             T U R B O M O L E   

                          a o f o r c e - program

                        using direct algorithms for

                       SCF level calculations of
                         * harmonic force constants
                         * hyperpolarizabilities
                         * IR and RAMAN intensities
                         * VCD intensities

                       DFT level calculations of
                         * harmonic force constants
                         * IR intensities
                                                   
       Stephan Boecker, Peter Deglmann, Filipp Furche and Marco Haeser
                          Quantum Chemistry Group
                          Universitaet  Karlsruhe
                                   Germany

 
 

          OpenMP Shared-Memory Parallelization: 16 CPUs.

            By: Erik P. Almaraz and Filipp Furche
            Copyright 2009-2011 by UCI and TURBOMOLE GmbH.

 
 
     References :
 
       RI-J implementation:
         Peter Deglmann, Klaus May, Filipp Furche, Reinhart Ahlrichs
                 Chem. Phys. Lett. 384:103 (2004)
 
       Efficiency, technical details:
         Peter Deglmann, Filipp Furche, Reinhart Ahlrichs
                 Chem. Phys. Lett. 362:511 (2002)
 
       Search of lowest eigenvalues by iterative diagonalization:
         Peter Deglmann, Filipp Furche
                 J. Chem. Phys. 117:9535 (2002)
 
       Vibrational circular dichroism implementation:
        Kevin Reiter, Michael Kuehn, Florian Weigend
                 J. Chem. Phys. 146:054102 (2017)  
 
 


              +--------------------------------------------------+
              | Atomic coordinate, charge and isotop information |
              +--------------------------------------------------+

                    atomic coordinates            atom    charge  isotop
          2.81285179   -6.89295928    0.00000000    c      6.000     0
          4.42817228   -3.86963209    0.00000000    s     16.000     0
          3.26105653   -2.58864565    2.32602027    o      8.000     0
          3.26105653   -2.58864565   -2.32602027    o      8.000     0
          0.00000000    0.00000000    0.00000000    u     92.000     0
         -2.03334470   -2.72689943    0.00000000    o      8.000     0
         -3.26105653    2.58864565   -2.32602027    o      8.000     0
         -4.42817228    3.86963209    0.00000000    s     16.000     0
         -2.81285179    6.89295928    0.00000000    c      6.000     0
          2.03334470    2.72689943    0.00000000    o      8.000     0
         -3.26105653    2.58864565    2.32602027    o      8.000     0
         -3.37308523    7.92147081    1.69562137    h      1.000     0
         -0.79348061    6.47609536    0.00000000    h      1.000     0
         -3.37308523    7.92147081   -1.69562137    h      1.000     0
          3.37308523   -7.92147081    1.69562137    h      1.000     0
          0.79348061   -6.47609536    0.00000000    h      1.000     0
          3.37308523   -7.92147081   -1.69562137    h      1.000     0
 
       center of nuclear mass  :   -0.00000000   -0.00000000   -0.00000000
       center of nuclear charge:   -0.00000000    0.00000000   -0.00000000

              +--------------------------------------------------+
              |               basis set information              |
              +--------------------------------------------------+

              we will work with the 1s 3p 5d 7f 9g ... basis set
              ...i.e. with spherical basis functions...

   type   atoms  prim   cont   basis
   ---------------------------------------------------------------------------
    c        2     66     46   aug-cc-pVTZ   [5s4p3d2f|19s6p3d2f]
    s        2    122     50   aug-cc-pVTZ   [6s5p3d2f|42s17p3d2f]
    o        6     66     46   aug-cc-pVTZ   [5s4p3d2f|19s6p3d2f]
    u        1    213    117   SVP(6g)   [10s9p5d4f3g|14s13p10d8f6g]
    h        6     25     23   aug-cc-pVTZ   [4s3p2d|6s3p2d]
   ---------------------------------------------------------------------------
   total:   17   1135    723
   ---------------------------------------------------------------------------

   total number of primitive shells          :  186
   total number of contracted shells         :  229
   total number of cartesian basis functions :  860
   total number of SCF-basis functions       :  723

 number of unique ecp types :                     1
 
             FOUND RI-J FLAG !
 

 NOTE: THIS IS A PRELIMINARY IMPLEMENTATION. THE RI APPROXIMATION IS
       PRESENTLY USED FOR CPKS CONTRIBUTIONS TO THE HESSIAN ONLY! SEE
       MANUAL FOR FURTHER DETAILS.

  
 AUXILIARY BASIS SET information:

              we will work with the 1s 3p 5d 7f 9g ... basis set
              ...i.e. with spherical basis functions...

   type   atoms  prim   cont   basis
   ---------------------------------------------------------------------------
    c        2     70     49   aug-cc-pVTZ   [6s4p3d1f1g|12s5p4d2f1g]
    s        2     77     51   aug-cc-pVTZ   [8s4p3d1f1g|14s5p5d2f1g]
    o        6     70     49   aug-cc-pVTZ   [6s4p3d1f1g|12s5p4d2f1g]
    u        1    268    205   def-TZVPP   [14s7p7d6f5g2h2i|18s7p7d6f6g3h5i]
    h        6     16     11   aug-cc-pVTZ   [3s1p1d|5s2p1d]
   ---------------------------------------------------------------------------
   total:   17   1078    765
   ---------------------------------------------------------------------------

   total number of primitive shells          :  135
   total number of contracted shells         :  227
   total number of cartesian basis functions :  996
   total number of SCF-basis functions       :  765


 symmetry group of the molecule :   c2h

 the group has the following generators :
   c2(z)
   mirror plane sigma(xy)

    4 symmetry operations found

 there are 4 real representations :   ag   bg   au   bu  

 maximum number of shells which are related by symmetry :  4


 determining totally symmetric integral contributions 
    - equivalent to irreducible tensor elements - 
 which can be formed within each triple of representations :

             representation triple      contributions

              ag    ag    ag              1
              ag    bg    bg              1
              ag    au    au              1
              ag    bu    bu              1
              bg    ag    bg              1
              bg    bg    ag              1
              bg    au    bu              1
              bg    bu    au              1
              au    ag    au              1
              au    bg    bu              1
              au    au    ag              1
              au    bu    bg              1
              bu    ag    bu              1
              bu    bg    au              1
              bu    au    bg              1
              bu    bu    ag              1
       UHF mode switched on !

    mo occupation :
   irrep   mo's   occupied
    ag     218       23
    bg     147       10
    au     146       10
    bu     212       23
 
 number of basis functions   :                    723
 number of occupied orbitals :                     66
 
 ALPHA-Occupation:                    66
 BETA-Occupation :                    65
  MOs are in ASCII format !


 reading orbital data $uhfmo_alpha  from file alpha
 orbital characterization : scfconv=6

 reading orbital data $uhfmo_beta  from file beta
 orbital characterization : scfconv=6
 time elapsed for calculating density matrices :   0.750 sec

 number of non-frozen orbitals          :   723
 number of non-frozen occupied orbitals :    66

 number of non-frozen orbitals          :   723
 number of non-frozen occupied orbitals :    65
 Blocking parameters 
 shells:
    index      start shell   last shell  start bf    last bf    #bf 
       1             1         229             1        860    860
          size of I/O Block in Byte:              301756800
  
           ----------------------
               RI - INFORMATION
           ----------------------

 biggest AO integral is expected to be    25.028879086

 Threshold for integral neglect (rithr2):   0.73E-11
 Threshold for integral neglect (rithr1):   0.73E-11

 Contributions to RI integral batches: 
  neglected integral batches:                 18310
  direct contribution:                            0
  memory contribution:                  8025
 Core memory available (ricore):              2000 MiB
 Core memory needed for (P|Q) and Cholesky:      2 MiB
 Core memory used for integrals:               910 MiB
 
 ****************************************
 Memory allocated for RIDFT: 911 MiB
 ****************************************
 
  
           ------------------
           density functional
           ------------------
 PBE0 hybrid functional
 exchange:    3/4 (LDA+PBE) + 1/4 HF
 correlation: LDA (PW) + PBE

 iterations will be done with small grid
  
 spherical integration : Lebedev's spherical grid
 spherical gridsize    :                     4
    i.e. gridpoints    :                   434
 value for diffuse not defined
 radial integration    : Chebyshev 2nd kind (scaling 3)
 radial gridsize       :                     6
 integration cells     :                     7
 partition function    : becke
 partition sharpness   :                     3
  
 
 Derivatives of quadrature weights will be included
 
          Overall gridpoints after grid construction =         48377
 Ordering of quadrature gridpoints disabled.
 
 
 
 
 OCCUPIED-OCCUPIED TENSOR SPACES :

          IRREP   tensor space dimension   number of roots

           ag             2471                  13
           bg             1820                   8
           au             1820                  10
           bu             2470                  14
 
 OCCUPIED-VIRTUAL TENSOR SPACES :

          IRREP   tensor space dimension   number of roots

           ag            22957                  13
           bg            20112                   8
           au            20111                  10
           bu            22952                  14
 
 
 
 
 CONSTRUCTING integral bounds

 setting up bound for integral derivative estimation

 increment for numerical differentiation : 0.00050000
 W A R N I N G : d2ixjz =-.361732284777E-08
 W A R N I N G : d2ixjz =-.105275075186E-03
 
 machine precision:   2.220446049250313E-016

 integral neglect threshold       :  0.10E-09
 integral storage threshold THIZE :  0.10E-04
 integral storage threshold THIME :         5

 
 
 
 PREPARING NUMERICAL INTEGRATION
 
 Remaining core memory for DFT =                  7132 MB
 
 Memory needed per atom    =                 17354 KiB
 
     i. e.                    17 atoms per loop

 Calculating ground state density on molecular grid

 Integral of ground state total density: Na =   131.0000171352600    

 Integral of ground state spin density:  Nb =  0.9999993756967362    


 
 
 CONSTRUCTING first deriv. of <mu|x,y,z|nu> -> Dip. deriv.
  dipole integral derivatives will be neglected if
  expon. factor <0.581395E-11
      ...terminated. cpu:       2.13       wall:       0.13
 
 
 
 
 CONSTRUCTING first deriv. of  <mu|nu>
                               <mu|h|nu>    -> RHS
              second deriv. of <mu|nu>      -> Hessian
                               <mu|h|nu>    -> Hessian
                               nucl. rep.   -> Hessian
     integrals are neglected if expon. factor <  5.813953488372092E-013
 
 CONSTRUCTING ECP contribution              -> RHS
 
                                            -> Hessian
      ...terminated. cpu:      28.77       wall:      20.63
 
 
 
 
 CONSTRUCTING second deriv. of 2e energy    -> Hessian
   treating Coulomb (and exchange) contribution
     integrals will be neglected if total contribution <  5.813953488372092E-009
      ...terminated. cpu:    2477.39       wall:     154.96
   treating exchange-correlation contribution
      ...terminated. cpu:     955.30       wall:      91.48
 
 
 
 
 CONSTRUCTING S(i,j)xi
      ...terminated. cpu:       2.97       wall:       0.18
 
 
 
 
 CONSTRUCTING <i|x,y,z|j>*S(i,j)xi          -> Dip. deriv.
      ...terminated. cpu:       1.40       wall:       0.11
 
 
 
 
 CONSTRUCTING epsilon(i)*S(i,j)xi*S(i,j)chi -> Hessian
      ...terminated. cpu:       0.02       wall:       0.00
 
 
 
 
 CONSTRUCTING G(a,i)[S(k,l)xi]              -> RHS
              G(i,j)[S(k,l)xi]*S(i,j)chi    -> Hessian
 
         Maximum core memory set to                   8000 MB
         This corresponds to                   703 vectors in CAO basis
      ...terminated. cpu:    7179.89       wall:     719.91
 
 
 
 
 CONSTRUCTING G(mu,nu)[D(kap,lam)]xi
 
          Maximum core memory set to                   8000 MB
          Atoms treated simultaneously :                    17
 max of dfo   85.4794499616806     
      ...terminated. cpu:    3532.77       wall:     255.12
 
 
 
 
 CONSTRUCTING F(a,i)xi                      -> RHS
              F(i,j)xi*S(i,j)chi            -> Hessian
 
        Maximum core memory set to                  8000 MB
        This corresponds to                  1373 vectors in CAO basis
      ...terminated. cpu:      46.38       wall:       5.66
 
 
 
 
 CONSTRUCTING epsilon(i)*S(a,i)xi           -> RHS
      ...terminated. cpu:       3.44       wall:       1.91
 
 
 
 
 SOLVING CPHF equations
 
 Residuum convergence criterium   :  1.000000000000000E-005
 
 Maximum number of Davidson iterations set to                    25
  Switching to small grid
        preparing numerical integration ....
          Overall gridpoints after grid construction =         14670

 Calculating ground state density on molecular grid

 Integral of ground state total density: Na =   130.9991768688616    

 Integral of ground state spin density:  Nb =  0.9999768895920196    




                       Nonorthonormal Krylov Space Iteration


 total number of roots to be determined: 45


 maximum core memory set to  8000 MB,
 corresponding to      703 vectors in CAO basis


 maximum number of simultaneously treated vectors (including degeneracy):       45


 Iteration IRREP Converged      Max. Euclidean
                 roots          residual norm

    1       ag       0        1.438139418984327D-01
            bg       0        5.923514828603972D-02
            au       0        6.085791494069230D-02
            bu       0        1.140419634692758D-01
 
    2       ag       0        3.067113756527490D-02
            bg       0        1.363691558906378D-02
            au       0        1.966999660929001D-02
            bu       0        2.266852728925672D-02
 
    3       ag       0        8.088709006238596D-03
            bg       0        4.107606448878132D-03
            au       0        2.065240780309607D-03
            bu       0        5.415397104515892D-03
 
    4       ag       0        3.992679885037922D-03
            bg       0        1.003353221353830D-02
            au       0        2.513320180505088D-04
            bu       0        9.517419493179358D-04
 
    5       ag       0        2.068289375229054D-03
            bg       0        2.514071857470749D-03
            au       8        5.198743313118937D-05
            bu       2        1.105512561588273D-04
 
    6       ag       3        3.078466805066249D-04
            bg       0        4.777837405244142D-04
            au      10        8.749592762386929D-06
            bu      13        1.169024066254402D-05
 
    7       ag       7        4.228265782942371D-05
            bg       5        7.869204935274586D-05
            au      10        8.749592762386929D-06
            bu      14        9.831019434830469D-06
 
    8       ag      13        7.391778812180775D-06
            bg       6        1.699633691354046D-05
            au      10        8.749592762386929D-06
            bu      14        9.831019434830469D-06
 
    9       ag      13        7.391778812180775D-06
            bg       8        7.986018079412507D-06
            au      10        8.749592762386929D-06
            bu      14        9.831019434830469D-06
 

 converged!

  Switching to fine grid
        preparing numerical integration ....
          Overall gridpoints after grid construction =         48377

 Calculating ground state density on molecular grid

 Integral of ground state total density: Na =   131.0000171352603    

 Integral of ground state spin density:  Nb =  0.9999993756967434    



 Iteration IRREP Converged      Max. Euclidean
                 roots          residual norm

   10       ag       0        1.395282101886637D-04
            bg       0        9.156617272893938D-05
            au       0        8.850839274523057D-05
            bu       0        1.384820374862787D-04
 

 NOTE: Residual norms are larger than 1.00D-05 due to mgrid option!

      ...terminated. cpu:   37470.45       wall:    3898.35
 
 
 
 
 CONSTRUCTING <a|x,y,z|i>*U(a,i)xi          -> Dip. deriv.
      ...terminated. cpu:       4.50       wall:       0.28
 
 
 
 
 CONSTRUCTING RHS(a,i)xi*U(a,i)chi          -> Hessian
      ...terminated. cpu:       0.38       wall:       0.02
 
 
 
 

            -----------------------
            permanent dipole moment
            -----------------------

                                   x                y                z
    electronic part       :   -0.0000000000     0.0000000000    -0.0000000000
     nuclear   part       :   -0.0000000000     0.0000000000    -0.0000000000
     total                :   -0.0000000000     0.0000000000    -0.0000000000

 with reference to the point :   0.0000000        0.0000000        0.0000000
 (given in atomic units)
    | dipole |       :    0.0000000000  debye

   ***  dipole moment & cartesian dipole gradients written onto
        $dipole, $dipgrad,  file=<dipgrad>  ***

             -----------------------------------
             rotational and vibrational analysis
             -----------------------------------


            ==============================================================
            ATOMIC WEIGHTS (average over the natural occurance of isotops)
            ==============================================================
            ('*' denotes special isotop !)
              1     c                12.01115
              2     s                32.06400
              3     o                15.99940
              4     o                15.99940
              5     u               238.03000
              6     o                15.99940
              7     o                15.99940
              8     s                32.06400
              9     c                12.01115
             10     o                15.99940
             11     o                15.99940
             12     h                 1.00797
             13     h                 1.00797
             14     h                 1.00797
             15     h                 1.00797
             16     h                 1.00797
             17     h                 1.00797

          -------------------------------------------------
          CARTESIAN FORCE CONSTANT MATRIX (hartree/bohr**2)
         (translational & rotational space projected out)
          -------------------------------------------------

   ATOM              1 c                           2 s 
                  dx        dy        dz        dx        dy        dz
   1 c     dx  0.5124806
           dy -0.1001397 0.3929725
           dz  0.0000000 0.0000000 0.5656365
   2 s     dx -0.1050505-0.0252949 0.0000000 0.4069928
           dy -0.0721811-0.0892203 0.0000000-0.1000259 0.3647183
           dz  0.0000000 0.0000000-0.0373990 0.0000000 0.0000000 0.5121495
   3 o     dx  0.0160739-0.0051306-0.0048825-0.1360818 0.0802359 0.1125313
           dy  0.0178899-0.0164316-0.0283795 0.0614272-0.1202667-0.1051965
           dz  0.0023372-0.0089766-0.0088967 0.0935071-0.1047094-0.2444191
   4 o     dx  0.0160739-0.0051306 0.0048825-0.1360818 0.0802359-0.1125313
           dy  0.0178899-0.0164316 0.0283795 0.0614272-0.1202667 0.1051965
           dz -0.0023372 0.0089766-0.0088967-0.0935071 0.1047094-0.2444191
   5 u     dx -0.0007415-0.0026013 0.0000000-0.0180027 0.0325956 0.0000000
           dy  0.0011024 0.0001353 0.0000000 0.0229421-0.0116798 0.0000000
           dz  0.0000000 0.0000000-0.0036029 0.0000000 0.0000000 0.0288743
   6 o     dx  0.0015110 0.0019855 0.0000000 0.0029975-0.0062620 0.0000000
           dy  0.0011579-0.0000271 0.0000000 0.0001891-0.0103045 0.0000000
           dz  0.0000000 0.0000000 0.0007686 0.0000000 0.0000000-0.0049692
   7 o     dx  0.0001707 0.0004843-0.0000131 0.0011630-0.0022180-0.0004235
           dy -0.0001192-0.0003506 0.0000077-0.0013125 0.0014593 0.0004620
           dz  0.0000089 0.0000511 0.0001006 0.0003548-0.0004836-0.0010412
   8 s     dx -0.0001246-0.0002816 0.0000000-0.0007297 0.0013056 0.0000000
           dy  0.0000894 0.0003103 0.0000000 0.0013056-0.0013198 0.0000000
           dz  0.0000000 0.0000000-0.0001218 0.0000000 0.0000000 0.0008287
   9 c     dx -0.0000054-0.0000221 0.0000000-0.0001246 0.0000894 0.0000000
           dy -0.0000221-0.0000732 0.0000000-0.0002816 0.0003103 0.0000000
           dz  0.0000000 0.0000000 0.0000200 0.0000000 0.0000000-0.0001218
  10 o     dx  0.0000600-0.0001139 0.0000000-0.0021793-0.0008361 0.0000000
           dy -0.0000590-0.0008165 0.0000000-0.0040985 0.0033850 0.0000000
           dz  0.0000000 0.0000000 0.0010290 0.0000000 0.0000000-0.0047214
  11 o     dx  0.0001707 0.0004843 0.0000131 0.0011630-0.0022180 0.0004235
           dy -0.0001192-0.0003506-0.0000077-0.0013125 0.0014593-0.0004620
           dz -0.0000089-0.0000511 0.0001006-0.0003548 0.0004836-0.0010412
  12 h     dx  0.0000022 0.0000080-0.0000030 0.0000309-0.0000528 0.0000357
           dy -0.0000056-0.0000143 0.0000042-0.0000511 0.0000664-0.0000550
           dz -0.0000067-0.0000164 0.0000018-0.0000443 0.0000688-0.0000220
  13 h     dx -0.0000196-0.0000345 0.0000000-0.0000857 0.0001648 0.0000000
           dy  0.0000273 0.0000631 0.0000000 0.0001592-0.0003122 0.0000000
           dz  0.0000000 0.0000000-0.0000106 0.0000000 0.0000000 0.0000969
  14 h     dx  0.0000022 0.0000080 0.0000030 0.0000309-0.0000528-0.0000357
           dy -0.0000056-0.0000143-0.0000042-0.0000511 0.0000664 0.0000550
           dz  0.0000067 0.0000164 0.0000018 0.0000443-0.0000688-0.0000220
  15 h     dx -0.0645321 0.0380459-0.0610079 0.0029753-0.0026766 0.0095562
           dy  0.0401140-0.1100541 0.1144656 0.0105679-0.0062887 0.0182744
           dz -0.0624097 0.1123662-0.2313644-0.0003940-0.0014463-0.0022495
  16 h     dx -0.3115395 0.0596872 0.0000000-0.0199926-0.0054275 0.0000000
           dy  0.0542668-0.0496429 0.0000000-0.0361582-0.0055177 0.0000000
           dz  0.0000000 0.0000000-0.0460022 0.0000000 0.0000000 0.0007257
  17 h     dx -0.0645321 0.0380459 0.0610079 0.0029753-0.0026766-0.0095562
           dy  0.0401140-0.1100541-0.1144656 0.0105679-0.0062887-0.0182744
           dz  0.0624097-0.1123662-0.2313644 0.0003940 0.0014463-0.0022495

   ATOM              3 o                           4 o 
                  dx        dy        dz        dx        dy        dz
   3 o     dx  0.1031559
           dy -0.0689683 0.1328851
           dz -0.0910598 0.1189980 0.3003305
   4 o     dx  0.0319581-0.0140130 0.0091513 0.1031559
           dy -0.0140130 0.0200448-0.0100395-0.0689683 0.1328851
           dz -0.0091513 0.0100395-0.0321564 0.0910598-0.1189980 0.3003305
   5 u     dx -0.0145307-0.0029775-0.0127659-0.0145307-0.0029775 0.0127659
           dy -0.0002719-0.0167893 0.0071150-0.0002719-0.0167893-0.0071150
           dz -0.0006270 0.0010552-0.0223675 0.0006270-0.0010552-0.0223675
   6 o     dx -0.0077820 0.0040236-0.0013011-0.0077820 0.0040236 0.0013011
           dy -0.0057611 0.0124703-0.0002591-0.0057611 0.0124703 0.0002591
           dz -0.0049905-0.0004313 0.0024146 0.0049905 0.0004313 0.0024146
   7 o     dx -0.0037195 0.0037639-0.0008675-0.0019486 0.0016766 0.0003574
           dy  0.0037639-0.0026388 0.0008949 0.0016766-0.0011021-0.0003700
           dz -0.0008675 0.0008949 0.0003727-0.0003574 0.0003700 0.0018653
   8 s     dx  0.0011630-0.0013125 0.0003548 0.0011630-0.0013125-0.0003548
           dy -0.0022180 0.0014593-0.0004836-0.0022180 0.0014593 0.0004836
           dz -0.0004235 0.0004620-0.0010412 0.0004235-0.0004620-0.0010412
   9 c     dx  0.0001707-0.0001192 0.0000089 0.0001707-0.0001192-0.0000089
           dy  0.0004843-0.0003506 0.0000511 0.0004843-0.0003506-0.0000511
           dz -0.0000131 0.0000077 0.0001006 0.0000131-0.0000077 0.0001006
  10 o     dx  0.0083274 0.0004374 0.0022334 0.0083274 0.0004374-0.0022334
           dy  0.0075336-0.0061156 0.0019097 0.0075336-0.0061156-0.0019097
           dz -0.0003133 0.0031013 0.0021354 0.0003133-0.0031013 0.0021354
  11 o     dx -0.0019486 0.0016766-0.0003574-0.0037195 0.0037639 0.0008675
           dy  0.0016766-0.0011021 0.0003700 0.0037639-0.0026388-0.0008949
           dz  0.0003574-0.0003700 0.0018653 0.0008675-0.0008949 0.0003727
  12 h     dx -0.0000115 0.0000342-0.0000333-0.0000435 0.0000654-0.0000189
           dy  0.0000889-0.0000672 0.0000618 0.0001136-0.0000831 0.0000304
           dz  0.0000733-0.0000650 0.0000163 0.0000780-0.0000720 0.0000179
  13 h     dx  0.0001329-0.0001640 0.0000120 0.0001329-0.0001640-0.0000120
           dy -0.0002202 0.0003224-0.0000233-0.0002202 0.0003224 0.0000233
           dz  0.0000171-0.0000232-0.0000752-0.0000171 0.0000232-0.0000752
  14 h     dx -0.0000435 0.0000654 0.0000189-0.0000115 0.0000342 0.0000333
           dy  0.0001136-0.0000831-0.0000304 0.0000889-0.0000672-0.0000618
           dz -0.0000780 0.0000720 0.0000179-0.0000733 0.0000650 0.0000163
  15 h     dx -0.0003372 0.0008282 0.0005052 0.0003218-0.0048712 0.0013683
           dy -0.0002380 0.0017308-0.0023815-0.0030698-0.0084282 0.0028539
           dz -0.0000574-0.0003439 0.0009789 0.0006213 0.0002303 0.0014436
  16 h     dx  0.0031510 0.0022793-0.0003754 0.0031510 0.0022793 0.0003754
           dy  0.0059940 0.0033606 0.0003566 0.0059940 0.0033606-0.0003566
           dz  0.0001062 0.0004091-0.0007197-0.0001062-0.0004091-0.0007197
  17 h     dx  0.0003218-0.0048712-0.0013683-0.0003372 0.0008282-0.0005052
           dy -0.0030698-0.0084282-0.0028539-0.0002380 0.0017308 0.0023815
           dz -0.0006213-0.0002303 0.0014436 0.0000574 0.0003439 0.0009789

   ATOM              5 u                           6 o 
                  dx        dy        dz        dx        dy        dz
   5 u     dx  0.4415094
           dy  0.3174624 0.6557346
           dz  0.0000000 0.0000000 0.0835980
   6 o     dx -0.1730731-0.1823209 0.0000000 0.1682871
           dy -0.1776414-0.2786158 0.0000000 0.1828168 0.2703557
           dz  0.0000000 0.0000000-0.0226647 0.0000000 0.0000000 0.0158836
   7 o     dx -0.0145307-0.0002719-0.0006270 0.0083274 0.0075336-0.0003133
           dy -0.0029775-0.0167893 0.0010552 0.0004374-0.0061156 0.0031013
           dz -0.0127659 0.0071150-0.0223675 0.0022334 0.0019097 0.0021354
   8 s     dx -0.0180027 0.0229421 0.0000000-0.0021793-0.0040985 0.0000000
           dy  0.0325956-0.0116798 0.0000000-0.0008361 0.0033850 0.0000000
           dz  0.0000000 0.0000000 0.0288743 0.0000000 0.0000000-0.0047214
   9 c     dx -0.0007415 0.0011024 0.0000000 0.0000600-0.0000590 0.0000000
           dy -0.0026013 0.0001353 0.0000000-0.0001139-0.0008165 0.0000000
           dz  0.0000000 0.0000000-0.0036029 0.0000000 0.0000000 0.0010290
  10 o     dx -0.1730731-0.1823209 0.0000000 0.0039594-0.0067598 0.0000000
           dy -0.1776414-0.2786158 0.0000000-0.0067598-0.0008234 0.0000000
           dz  0.0000000 0.0000000-0.0226647 0.0000000 0.0000000 0.0066302
  11 o     dx -0.0145307-0.0002719 0.0006270 0.0083274 0.0075336 0.0003133
           dy -0.0029775-0.0167893-0.0010552 0.0004374-0.0061156-0.0031013
           dz  0.0127659-0.0071150-0.0223675-0.0022334-0.0019097 0.0021354
  12 h     dx -0.0010705-0.0008548-0.0000840 0.0001359 0.0001016 0.0001066
           dy -0.0009288 0.0003331-0.0010959 0.0000141-0.0001821 0.0002566
           dz -0.0002191 0.0003672-0.0002001-0.0000110-0.0001499 0.0000424
  13 h     dx  0.0022651 0.0017987 0.0000000-0.0003693-0.0003596 0.0000000
           dy -0.0032716-0.0047944 0.0000000 0.0007708 0.0008093 0.0000000
           dz  0.0000000 0.0000000 0.0007294 0.0000000 0.0000000 0.0000026
  14 h     dx -0.0010705-0.0008548 0.0000840 0.0001359 0.0001016-0.0001066
           dy -0.0009288 0.0003331 0.0010959 0.0000141-0.0001821-0.0002566
           dz  0.0002191-0.0003672-0.0002001 0.0000110 0.0001499 0.0000424
  15 h     dx -0.0010705-0.0008548 0.0000840-0.0000364 0.0012984 0.0004374
           dy -0.0009288 0.0003331 0.0010959 0.0002310 0.0001880-0.0000957
           dz  0.0002191-0.0003672-0.0002001-0.0000050 0.0000499 0.0000205
  16 h     dx  0.0022651 0.0017987 0.0000000-0.0024830-0.0015904 0.0000000
           dy -0.0032716-0.0047944 0.0000000 0.0013075 0.0033160 0.0000000
           dz  0.0000000 0.0000000 0.0007294 0.0000000 0.0000000-0.0011847
  17 h     dx -0.0010705-0.0008548-0.0000840-0.0000364 0.0012984-0.0004374
           dy -0.0009288 0.0003331-0.0010959 0.0002310 0.0001880 0.0000957
           dz -0.0002191 0.0003672-0.0002001 0.0000050-0.0000499 0.0000205

   ATOM              7 o                           8 s 
                  dx        dy        dz        dx        dy        dz
   7 o     dx  0.1031559
           dy -0.0689683 0.1328851
           dz -0.0910598 0.1189980 0.3003305
   8 s     dx -0.1360818 0.0614272 0.0935071 0.4069928
           dy  0.0802359-0.1202667-0.1047094-0.1000259 0.3647183
           dz  0.1125313-0.1051965-0.2444191 0.0000000 0.0000000 0.5121495
   9 c     dx  0.0160739 0.0178899 0.0023372-0.1050505-0.0721811 0.0000000
           dy -0.0051306-0.0164316-0.0089766-0.0252949-0.0892203 0.0000000
           dz -0.0048825-0.0283795-0.0088967 0.0000000 0.0000000-0.0373990
  10 o     dx -0.0077820 0.0040236-0.0013011 0.0029975-0.0062620 0.0000000
           dy -0.0057611 0.0124703-0.0002591 0.0001891-0.0103045 0.0000000
           dz -0.0049905-0.0004313 0.0024146 0.0000000 0.0000000-0.0049692
  11 o     dx  0.0319581-0.0140130 0.0091513-0.1360818 0.0802359-0.1125313
           dy -0.0140130 0.0200448-0.0100395 0.0614272-0.1202667 0.1051965
           dz -0.0091513 0.0100395-0.0321564-0.0935071 0.1047094-0.2444191
  12 h     dx  0.0003218-0.0048712-0.0013683 0.0029753-0.0026766-0.0095562
           dy -0.0030698-0.0084282-0.0028539 0.0105679-0.0062887-0.0182744
           dz -0.0006213-0.0002303 0.0014436 0.0003940 0.0014463-0.0022495
  13 h     dx  0.0031510 0.0022793-0.0003754-0.0199926-0.0054275 0.0000000
           dy  0.0059940 0.0033606 0.0003566-0.0361582-0.0055177 0.0000000
           dz  0.0001062 0.0004091-0.0007197 0.0000000 0.0000000 0.0007257
  14 h     dx -0.0003372 0.0008282 0.0005052 0.0029753-0.0026766 0.0095562
           dy -0.0002380 0.0017308-0.0023815 0.0105679-0.0062887 0.0182744
           dz -0.0000574-0.0003439 0.0009789-0.0003940-0.0014463-0.0022495
  15 h     dx -0.0000435 0.0000654 0.0000189 0.0000309-0.0000528-0.0000357
           dy  0.0001136-0.0000831-0.0000304-0.0000511 0.0000664 0.0000550
           dz -0.0000780 0.0000720 0.0000179 0.0000443-0.0000688-0.0000220
  16 h     dx  0.0001329-0.0001640 0.0000120-0.0000857 0.0001648 0.0000000
           dy -0.0002202 0.0003224-0.0000233 0.0001592-0.0003122 0.0000000
           dz  0.0000171-0.0000232-0.0000752 0.0000000 0.0000000 0.0000969
  17 h     dx -0.0000115 0.0000342-0.0000333 0.0000309-0.0000528 0.0000357
           dy  0.0000889-0.0000672 0.0000618-0.0000511 0.0000664-0.0000550
           dz  0.0000733-0.0000650 0.0000163-0.0000443 0.0000688-0.0000220

   ATOM              9 c                          10 o 
                  dx        dy        dz        dx        dy        dz
   9 c     dx  0.5124806
           dy -0.1001397 0.3929725
           dz  0.0000000 0.0000000 0.5656365
  10 o     dx  0.0015110 0.0019855 0.0000000 0.1682871
           dy  0.0011579-0.0000271 0.0000000 0.1828168 0.2703557
           dz  0.0000000 0.0000000 0.0007686 0.0000000 0.0000000 0.0158836
  11 o     dx  0.0160739-0.0051306 0.0048825-0.0077820-0.0057611 0.0049905
           dy  0.0178899-0.0164316 0.0283795 0.0040236 0.0124703 0.0004313
           dz -0.0023372 0.0089766-0.0088967 0.0013011 0.0002591 0.0024146
  12 h     dx -0.0645321 0.0380459 0.0610079-0.0000364 0.0012984-0.0004374
           dy  0.0401140-0.1100541-0.1144656 0.0002310 0.0001880 0.0000957
           dz  0.0624097-0.1123662-0.2313644 0.0000050-0.0000499 0.0000205
  13 h     dx -0.3115395 0.0596872 0.0000000-0.0024830-0.0015904 0.0000000
           dy  0.0542668-0.0496429 0.0000000 0.0013075 0.0033160 0.0000000
           dz  0.0000000 0.0000000-0.0460022 0.0000000 0.0000000-0.0011847
  14 h     dx -0.0645321 0.0380459-0.0610079-0.0000364 0.0012984 0.0004374
           dy  0.0401140-0.1100541 0.1144656 0.0002310 0.0001880-0.0000957
           dz -0.0624097 0.1123662-0.2313644-0.0000050 0.0000499 0.0000205
  15 h     dx  0.0000022 0.0000080 0.0000030 0.0001359 0.0001016-0.0001066
           dy -0.0000056-0.0000143-0.0000042 0.0000141-0.0001821-0.0002566
           dz  0.0000067 0.0000164 0.0000018 0.0000110 0.0001499 0.0000424
  16 h     dx -0.0000196-0.0000345 0.0000000-0.0003693-0.0003596 0.0000000
           dy  0.0000273 0.0000631 0.0000000 0.0007708 0.0008093 0.0000000
           dz  0.0000000 0.0000000-0.0000106 0.0000000 0.0000000 0.0000026
  17 h     dx  0.0000022 0.0000080-0.0000030 0.0001359 0.0001016 0.0001066
           dy -0.0000056-0.0000143 0.0000042 0.0000141-0.0001821 0.0002566
           dz -0.0000067-0.0000164 0.0000018-0.0000110-0.0001499 0.0000424

   ATOM             11 o                          12 h 
                  dx        dy        dz        dx        dy        dz
  11 o     dx  0.1031559
           dy -0.0689683 0.1328851
           dz  0.0910598-0.1189980 0.3003305
  12 h     dx -0.0003372 0.0008282-0.0005052 0.0646365
           dy -0.0002380 0.0017308 0.0023815-0.0415017 0.1158522
           dz  0.0000574 0.0003439 0.0009789-0.0676752 0.1230407 0.2477815
  13 h     dx  0.0031510 0.0022793 0.0003754-0.0028986-0.0002926-0.0012132
           dy  0.0059940 0.0033606-0.0003566 0.0146116-0.0027102 0.0015655
           dz -0.0001062-0.0004091-0.0007197 0.0253072-0.0030101 0.0010625
  14 h     dx  0.0003218-0.0048712 0.0013683 0.0008258-0.0050390 0.0067759
           dy -0.0030698-0.0084282 0.0028539-0.0050390 0.0096493-0.0138859
           dz  0.0006213 0.0002303 0.0014436-0.0067759 0.0138859-0.0175292
  15 h     dx -0.0000115 0.0000342 0.0000333-0.0000000 0.0000036 0.0000017
           dy  0.0000889-0.0000672-0.0000618 0.0000036-0.0000057-0.0000042
           dz -0.0000733 0.0000650 0.0000163-0.0000017 0.0000042 0.0000042
  16 h     dx  0.0001329-0.0001640-0.0000120 0.0000013-0.0000076-0.0000052
           dy -0.0002202 0.0003224 0.0000233-0.0000020 0.0000137 0.0000097
           dz -0.0000171 0.0000232-0.0000752 0.0000005-0.0000041-0.0000011
  17 h     dx -0.0000435 0.0000654-0.0000189 0.0000000 0.0000010 0.0000010
           dy  0.0001136-0.0000831 0.0000304 0.0000010 0.0000001-0.0000021
           dz  0.0000780-0.0000720 0.0000179 0.0000010-0.0000021-0.0000033

   ATOM             13 h                          14 h 
                  dx        dy        dz        dx        dy        dz
  13 h     dx  0.3314588
           dy -0.0578820 0.0541261
           dz  0.0000000 0.0000000 0.0451073
  14 h     dx -0.0028986 0.0146116-0.0253072 0.0646365
           dy -0.0002926-0.0027102 0.0030101-0.0415017 0.1158522
           dz  0.0012132-0.0015655 0.0010625 0.0676752-0.1230407 0.2477815
  15 h     dx  0.0000013-0.0000020-0.0000005 0.0000000 0.0000010-0.0000010
           dy -0.0000076 0.0000137 0.0000041 0.0000010 0.0000001 0.0000021
           dz  0.0000052-0.0000097-0.0000011-0.0000010 0.0000021-0.0000033
  16 h     dx -0.0000073 0.0000132 0.0000000 0.0000013-0.0000076 0.0000052
           dy  0.0000132-0.0000203 0.0000000-0.0000020 0.0000137-0.0000097
           dz  0.0000000 0.0000000 0.0000026-0.0000005 0.0000041-0.0000011
  17 h     dx  0.0000013-0.0000020 0.0000005-0.0000000 0.0000036-0.0000017
           dy -0.0000076 0.0000137-0.0000041 0.0000036-0.0000057 0.0000042
           dz -0.0000052 0.0000097-0.0000011 0.0000017-0.0000042 0.0000042

   ATOM             15 h                          16 h 
                  dx        dy        dz        dx        dy        dz
  15 h     dx  0.0646365
           dy -0.0415017 0.1158522
           dz  0.0676752-0.1230407 0.2477815
  16 h     dx -0.0028986-0.0002926 0.0012132 0.3314588
           dy  0.0146116-0.0027102-0.0015655-0.0578820 0.0541261
           dz -0.0253072 0.0030101 0.0010625 0.0000000 0.0000000 0.0451073
  17 h     dx  0.0008258-0.0050390-0.0067759-0.0028986 0.0146116 0.0253072
           dy -0.0050390 0.0096493 0.0138859-0.0002926-0.0027102-0.0030101
           dz  0.0067759-0.0138859-0.0175292-0.0012132 0.0015655 0.0010625

   ATOM             17 h 
                  dx        dy        dz
  17 h     dx  0.0646365
           dy -0.0415017 0.1158522
           dz -0.0676752 0.1230407 0.2477815
 

   *** projected hessian written onto $hessian (projected), file=<hessian> ***

 dipole moment in principle axis system (a.u.) :
    -0.0000000000     0.0000000000    -0.0000000000
 norm :  1.292520863286855E-013

 rotational constants b for rotations around axis of inertia
 and optical intensities for (1 <-- 0) transition

   b   :     0.0116921295     0.0613983990     0.0111202348   (cm**(-1))
   b   :         350.5212        1840.6777         333.3763     (MHz)
  int. :     0.0000000000     0.0000000000     0.0000000000     (a.u.)

   x   :     0.7718630492    -0.6357888276     0.0000000000
   y   :     0.6357888276     0.7718630492     0.0000000000
   z   :     0.0000000000     0.0000000000     1.0000000000

   ***  normal modes written onto $vibrational normal modes, file=<vib_normal_modes>  ***

 keyword $vibrational reduced masses missing in file <control>


   ***  vibrational spectroscopic data written onto$vibrational spectrum   
        file=<vibspectrum>  ***

          ---------------------------------------------------
          NORMAL MODES and VIBRATIONAL FREQUENCIES (cm**(-1))
          ---------------------------------------------------

 imaginary wave numbers indicate a negative curvature of the energy surface.
 zero frequency modes have no physical meaning except being generators of
 translations and rotations. each vibrational normal mode - given in terms of
 cartesian displacement vectors of all atoms - has been normalized to unity.
 to obtain mass-weigthed normal coordinates in a.u. divide the tabulated
 modes by sqrt(reduced mass * 1822.88853).
 band intensities or cross sections refer to independent non-degenerate normal
 modes, that is, the intensities of degenerate modes have yet to be added.
 dDIP/dQ is the normal mode derivative of the dipole moment.


       mode               1        2        3        4        5        6

     frequency           0.00     0.00     0.00     0.00     0.00     0.00

     symmetry                                                             

        IR                -        -        -        -        -        - 
|dDIP/dQ|   (a.u.)     0.0000   0.0000   0.0000   0.0000   0.0000   0.0000
intensity (km/mol)       0.00     0.00     0.00     0.00     0.00     0.00
intensity (  %   )       0.00     0.00     0.00     0.00     0.00     0.00
 
       RAMAN              -        -        -        -        -        - 
 
  1   c           x  -0.10767  0.07801 -0.00778 -0.22777 -0.26142  0.07113
                  y   0.09735  0.16193  0.07924 -0.12006 -0.06682  0.01818
                  z   0.00912 -0.01381  0.01756  0.00598  0.13781  0.31536
  2   s           x  -0.04182  0.00269 -0.05230 -0.17600 -0.17117  0.04657
                  y   0.06216  0.20217  0.10303 -0.14772 -0.11504  0.03130
                  z  -0.11527 -0.06143  0.12691 -0.20551  0.18893  0.11866
  3   o           x   0.09390 -0.02422 -0.11233  0.00928 -0.22394  0.09916
                  y   0.12568  0.20706  0.02370 -0.05229 -0.07091  0.13950
                  z  -0.08215 -0.07763  0.14048 -0.16509  0.13815  0.08546
  4   o           x  -0.12174 -0.03422 -0.03000 -0.31741 -0.04192 -0.02682
                  y   0.04949  0.13913  0.14798 -0.20318 -0.08949 -0.09586
                  z  -0.08215 -0.07763  0.14048 -0.16509  0.13815  0.08546
  5   u           x   0.04246 -0.09371 -0.10929 -0.10974 -0.05565  0.01514
                  y   0.15861  0.09186  0.03782 -0.07190  0.01715 -0.00467
                  z   0.02661 -0.10841  0.15192 -0.02005  0.00023  0.04280
  6   o           x  -0.01693 -0.02577 -0.06913 -0.15643 -0.13706  0.03729
                  y   0.20290  0.04120  0.00787 -0.03708  0.07785 -0.02118
                  z   0.16553 -0.06422  0.04308  0.21118 -0.06844  0.23582
  7   o           x  -0.00898 -0.16320 -0.10624 -0.22876  0.11263 -0.06887
                  y   0.19154 -0.02335  0.05193 -0.09150  0.10521 -0.14883
                  z   0.13538 -0.13920  0.16335  0.12499 -0.13770  0.00014
  8   s           x   0.12674 -0.19011 -0.16627 -0.04348  0.05986 -0.01629
                  y   0.25506 -0.01846 -0.02739  0.00392  0.14934 -0.04063
                  z   0.16850 -0.15539  0.17692  0.16541 -0.18848 -0.03306
  9   c           x   0.19259 -0.26543 -0.21080  0.00828  0.15012 -0.04085
                  y   0.21987  0.02178 -0.00361 -0.02373  0.10112 -0.02751
                  z   0.04410 -0.20301  0.28627 -0.04608 -0.13735 -0.22976
 10   o           x   0.10185 -0.16164 -0.14945 -0.06305  0.02575 -0.00701
                  y   0.11432  0.14251  0.06776 -0.10671 -0.04355  0.01185
                  z  -0.11231 -0.15260  0.26075 -0.25128  0.06889 -0.15022
 11   o           x   0.20666 -0.15319 -0.18858  0.09792 -0.06938  0.05710
                  y   0.26773  0.04458 -0.07234  0.05938  0.12379  0.08652
                  z   0.13538 -0.13920  0.16335  0.12499 -0.13770  0.00014
 12   h           x   0.29359 -0.28740 -0.25595  0.14497  0.11448 -0.00328
                  y   0.25985  0.03259 -0.05715  0.04085  0.12461  0.05372
                  z   0.05322 -0.21683  0.30383 -0.04010 -0.16338 -0.26662
 13   h           x   0.18351 -0.25504 -0.20466  0.00114  0.13767 -0.03746
                  y   0.17589  0.07209  0.02613 -0.05831  0.04084 -0.01111
                  z  -0.04268 -0.20127  0.31087 -0.17437 -0.05668 -0.26335
 14   h           x   0.13639 -0.29470 -0.19593 -0.09318  0.24716 -0.09512
                  y   0.20430 -0.01693  0.03344 -0.06914  0.11107 -0.11785
                  z   0.05322 -0.21683  0.30383 -0.04010 -0.16338 -0.26662
 15   h           x  -0.05147  0.10728 -0.02264 -0.12630 -0.35847  0.12540
                  y   0.11292  0.20065  0.04219 -0.07466 -0.07677  0.10852
                  z   0.00000 -0.00000  0.00000  0.00000  0.16383  0.35222
 16   h           x  -0.09859  0.06763 -0.01392 -0.22063 -0.24898  0.06775
                  y   0.14133  0.11163  0.04950 -0.08548 -0.00654  0.00178
                  z   0.09590 -0.01556 -0.00704  0.13427  0.05713  0.34895
 17   h           x  -0.20867  0.09999  0.03738 -0.36445 -0.22578  0.03357
                  y   0.05737  0.15113  0.13279 -0.18465 -0.09032 -0.06305
                  z   0.00000  0.00000  0.00000  0.00000  0.16383  0.35222

reduced mass(g/mol)    17.967   16.389   18.156   16.600   11.051    6.465


       mode               7        8        9       10       11       12

     frequency          23.62    47.66    92.04    96.17   134.85   146.69

     symmetry            au       bu       au       ag       bu       bg  

        IR               YES      YES      YES      NO       YES      NO 
|dDIP/dQ|   (a.u.)     0.0004   0.0011   0.0012   0.0000   0.0014   0.0000
intensity (km/mol)       0.30     2.22     2.60     0.00     3.42     0.00
intensity (  %   )       0.07     0.53     0.62     0.00     0.82     0.00
 
       RAMAN             NO       NO       NO       YES      NO       YES
 
  1   c           x  -0.00000 -0.30427  0.00000 -0.25576  0.20373 -0.00000
                  y   0.00000 -0.02129 -0.00000  0.13677 -0.18210  0.00000
                  z   0.26992 -0.00000 -0.24373 -0.00000 -0.00000 -0.20362
  2   s           x  -0.00000 -0.09715  0.00000 -0.02983 -0.03072 -0.00000
                  y   0.00000 -0.13106 -0.00000  0.01615 -0.05541  0.00000
                  z   0.22046 -0.00000  0.07424  0.00000  0.00000  0.06094
  3   o           x  -0.11524 -0.00463 -0.14061  0.06577 -0.11219 -0.05245
                  y   0.09385 -0.04255 -0.13578  0.10925 -0.13175 -0.09648
                  z   0.11278 -0.00080  0.07673  0.00015 -0.00189  0.08226
  4   o           x   0.11524 -0.00463  0.14061  0.06577 -0.11219  0.05245
                  y  -0.09385 -0.04255  0.13578  0.10925 -0.13175  0.09648
                  z   0.11278  0.00080  0.07673 -0.00015  0.00189  0.08226
  5   u           x  -0.00000  0.06005 -0.00000  0.00000  0.00925 -0.00000
                  y   0.00000  0.04224 -0.00000  0.00000  0.06426 -0.00000
                  z  -0.10450  0.00000 -0.00244  0.00000 -0.00000  0.00000
  6   o           x  -0.00000  0.04968 -0.00000  0.09984  0.01710 -0.00000
                  y   0.00000  0.04961  0.00000 -0.07896  0.07230  0.00000
                  z  -0.14535 -0.00000 -0.04319 -0.00000  0.00000  0.37331
  7   o           x  -0.11524 -0.00463 -0.14061 -0.06577 -0.11219  0.05245
                  y   0.09385 -0.04255 -0.13578 -0.10925 -0.13175  0.09648
                  z   0.11278 -0.00080  0.07673 -0.00015 -0.00189 -0.08226
  8   s           x   0.00000 -0.09715 -0.00000  0.02983 -0.03072 -0.00000
                  y   0.00000 -0.13106  0.00000 -0.01615 -0.05541 -0.00000
                  z   0.22046  0.00000  0.07424  0.00000 -0.00000 -0.06094
  9   c           x   0.00000 -0.30427 -0.00000  0.25576  0.20373 -0.00000
                  y   0.00000 -0.02129  0.00000 -0.13677 -0.18210  0.00000
                  z   0.26992  0.00000 -0.24373 -0.00000 -0.00000  0.20362
 10   o           x  -0.00000  0.04968  0.00000 -0.09984  0.01710  0.00000
                  y   0.00000  0.04961 -0.00000  0.07896  0.07230 -0.00000
                  z  -0.14535 -0.00000 -0.04319 -0.00000  0.00000 -0.37331
 11   o           x   0.11524 -0.00463  0.14061 -0.06577 -0.11219 -0.05245
                  y  -0.09385 -0.04255  0.13578 -0.10925 -0.13175 -0.09648
                  z   0.11278  0.00080  0.07673  0.00015  0.00189 -0.08226
 12   h           x   0.08422 -0.36955  0.11106  0.32756  0.28880 -0.02368
                  y  -0.07346 -0.05765  0.13578 -0.09673 -0.13610 -0.17380
                  z   0.34228  0.00039 -0.28941 -0.00046  0.00022  0.30114
 13   h           x   0.00000 -0.27613 -0.00000  0.22471  0.17002 -0.00000
                  y   0.00000  0.11418  0.00000 -0.28672 -0.34788  0.00000
                  z   0.15182  0.00000 -0.34055  0.00000 -0.00000  0.18684
 14   h           x  -0.08422 -0.36955 -0.11106  0.32756  0.28880  0.02368
                  y   0.07346 -0.05765 -0.13578 -0.09673 -0.13610  0.17380
                  z   0.34228 -0.00039 -0.28941  0.00046 -0.00022  0.30114
 15   h           x  -0.08422 -0.36955 -0.11106 -0.32756  0.28880 -0.02368
                  y   0.07346 -0.05765 -0.13578  0.09673 -0.13610 -0.17380
                  z   0.34228 -0.00039 -0.28941 -0.00046 -0.00022 -0.30114
 16   h           x  -0.00000 -0.27613  0.00000 -0.22471  0.17002 -0.00000
                  y   0.00000  0.11418 -0.00000  0.28672 -0.34788  0.00000
                  z   0.15182 -0.00000 -0.34055 -0.00000  0.00000 -0.18684
 17   h           x   0.08422 -0.36955  0.11106 -0.32756  0.28880  0.02368
                  y  -0.07346 -0.05765  0.13578  0.09673 -0.13610  0.17380
                  z   0.34228  0.00039 -0.28941  0.00046  0.00022 -0.30114

reduced mass(g/mol)    10.939    6.244    5.359    4.392    5.861    7.458


       mode              13       14       15       16       17       18

     frequency         175.53   193.13   199.51   203.93   209.43   210.44

     symmetry            ag       bu       au       ag       bg       au  

        IR               NO       YES      YES      NO       NO       YES
|dDIP/dQ|   (a.u.)     0.0000   0.0059   0.0041   0.0000   0.0000   0.0013
intensity (km/mol)       0.00    62.54    30.39     0.00     0.00     3.16
intensity (  %   )       0.00    15.04     7.31     0.00     0.00     0.76
 
       RAMAN             YES      NO       NO       YES      YES      NO 
 
  1   c           x   0.01231  0.02823  0.00000  0.08526 -0.00000 -0.00000
                  y  -0.19478  0.09131 -0.00000 -0.08098  0.00000  0.00000
                  z  -0.00000 -0.00000 -0.01971  0.00000 -0.00118 -0.00654
  2   s           x   0.15541 -0.22032  0.00000 -0.16134 -0.00000 -0.00000
                  y  -0.25219  0.19921 -0.00000  0.04638  0.00000  0.00000
                  z   0.00000  0.00000  0.02776 -0.00000  0.00664  0.00286
  3   o           x   0.23396 -0.31103  0.07987 -0.21242  0.06473 -0.07367
                  y  -0.13469  0.09092 -0.03685 -0.01354 -0.02311  0.02721
                  z  -0.03060  0.02986  0.07293  0.01316  0.04737 -0.04945
  4   o           x   0.23396 -0.31103 -0.07987 -0.21242 -0.06473  0.07367
                  y  -0.13469  0.09092  0.03685 -0.01354  0.02311 -0.02721
                  z   0.03060 -0.02986  0.07293 -0.01316  0.04737 -0.04945
  5   u           x  -0.00000  0.10224 -0.00000  0.00000  0.00000  0.00000
                  y  -0.00000 -0.06400  0.00000 -0.00000 -0.00000 -0.00000
                  z  -0.00000 -0.00000 -0.04770  0.00000 -0.00000 -0.01857
  6   o           x   0.28565  0.26652  0.00000  0.35693 -0.00000 -0.00000
                  y  -0.18405 -0.18728 -0.00000 -0.28940  0.00000  0.00000
                  z   0.00000  0.00000  0.17481 -0.00000 -0.03444  0.23621
  7   o           x  -0.23396 -0.31103  0.07987  0.21242 -0.06473 -0.07367
                  y   0.13469  0.09092 -0.03685  0.01354  0.02311  0.02721
                  z   0.03060  0.02986  0.07293 -0.01316 -0.04737 -0.04945
  8   s           x  -0.15541 -0.22032  0.00000  0.16134  0.00000  0.00000
                  y   0.25219  0.19921 -0.00000 -0.04638 -0.00000 -0.00000
                  z  -0.00000  0.00000  0.02776 -0.00000 -0.00664  0.00286
  9   c           x  -0.01231  0.02823 -0.00000 -0.08526 -0.00000 -0.00000
                  y   0.19478  0.09131  0.00000  0.08098 -0.00000 -0.00000
                  z  -0.00000  0.00000 -0.01971  0.00000  0.00118 -0.00654
 10   o           x  -0.28565  0.26652 -0.00000 -0.35693  0.00000  0.00000
                  y   0.18405 -0.18728  0.00000  0.28940 -0.00000 -0.00000
                  z   0.00000 -0.00000  0.17481  0.00000  0.03444  0.23621
 11   o           x  -0.23396 -0.31103 -0.07987  0.21242  0.06473  0.07367
                  y   0.13469  0.09092  0.03685  0.01354 -0.02311 -0.02721
                  z  -0.03060 -0.02986  0.07293  0.01316 -0.04737 -0.04945
 12   h           x   0.01872  0.12420 -0.27481 -0.19937  0.30268  0.28995
                  y   0.21566  0.14426  0.18892  0.02167 -0.17918 -0.16038
                  z  -0.00186  0.00026 -0.22452 -0.00167  0.20922  0.18596
 13   h           x  -0.02746 -0.00407 -0.00000 -0.04756 -0.00000 -0.00000
                  y   0.12875 -0.07051  0.00000  0.27051  0.00000 -0.00000
                  z  -0.00000  0.00000  0.34322 -0.00000 -0.38710 -0.37148
 14   h           x   0.01872  0.12420  0.27481 -0.19937 -0.30268 -0.28995
                  y   0.21566  0.14426 -0.18892  0.02167  0.17918  0.16038
                  z   0.00186 -0.00026 -0.22452  0.00167  0.20922  0.18596
 15   h           x  -0.01872  0.12420  0.27481  0.19937  0.30268 -0.28995
                  y  -0.21566  0.14426 -0.18892 -0.02167 -0.17918  0.16038
                  z  -0.00186 -0.00026 -0.22452 -0.00167 -0.20922  0.18596
 16   h           x   0.02746 -0.00407  0.00000  0.04756 -0.00000 -0.00000
                  y  -0.12875 -0.07051 -0.00000 -0.27051  0.00000  0.00000
                  z   0.00000  0.00000  0.34322 -0.00000  0.38710 -0.37148
 17   h           x  -0.01872  0.12420 -0.27481  0.19937 -0.30268  0.28995
                  y  -0.21566  0.14426  0.18892 -0.02167  0.17918 -0.16038
                  z   0.00186  0.00026 -0.22452  0.00167 -0.20922  0.18596

reduced mass(g/mol)    15.185   19.669    3.303   12.121    1.464    3.281


       mode              19       20       21       22       23       24

     frequency         240.58   246.75   274.72   310.55   311.93   400.81

     symmetry            au       bg       bu       au       bg       bu  

        IR               YES      NO       YES      YES      NO       YES
|dDIP/dQ|   (a.u.)     0.0017   0.0000   0.0085   0.0008   0.0000   0.0049
intensity (km/mol)       5.30     0.00   127.77     1.25     0.00    42.75
intensity (  %   )       1.27     0.00    30.73     0.30     0.00    10.28
 
       RAMAN             NO       YES      NO       NO       YES      NO 
 
  1   c           x  -0.00000 -0.00000  0.02199 -0.00000 -0.00000 -0.02401
                  y  -0.00000 -0.00000  0.05002  0.00000 -0.00000  0.18192
                  z   0.02347 -0.03681  0.00000 -0.16185 -0.15913 -0.00000
  2   s           x   0.00000  0.00000 -0.04059 -0.00000 -0.00000  0.09013
                  y  -0.00000 -0.00000  0.05979  0.00000 -0.00000  0.04914
                  z  -0.00157  0.00219  0.00000  0.07151  0.07299  0.00000
  3   o           x  -0.10413  0.13917 -0.08753  0.04789  0.03731 -0.06416
                  y   0.03496 -0.04047  0.00629  0.17875  0.18496 -0.16306
                  z  -0.06309  0.08355  0.01600 -0.00569 -0.01376  0.04751
  4   o           x   0.10413 -0.13917 -0.08753 -0.04789 -0.03731 -0.06416
                  y  -0.03496  0.04047  0.00629 -0.17875 -0.18496 -0.16306
                  z  -0.06309  0.08355 -0.01600 -0.00569 -0.01376 -0.04751
  5   u           x  -0.00000 -0.00000  0.10415  0.00000 -0.00000 -0.00356
                  y   0.00000  0.00000 -0.07904 -0.00000  0.00000  0.00633
                  z   0.01088  0.00000  0.00000  0.00703  0.00000  0.00000
  6   o           x   0.00000  0.00000 -0.53924 -0.00000 -0.00000  0.01669
                  y  -0.00000 -0.00000  0.40992  0.00000 -0.00000 -0.00158
                  z   0.02622 -0.02716  0.00000 -0.00978 -0.03058  0.00000
  7   o           x  -0.10413 -0.13917 -0.08753  0.04789 -0.03731 -0.06416
                  y   0.03496  0.04047  0.00629  0.17875 -0.18496 -0.16306
                  z  -0.06309 -0.08355  0.01600 -0.00569  0.01376  0.04751
  8   s           x   0.00000  0.00000 -0.04059  0.00000 -0.00000  0.09013
                  y  -0.00000 -0.00000  0.05979  0.00000 -0.00000  0.04914
                  z  -0.00157 -0.00219 -0.00000  0.07151 -0.07299 -0.00000
  9   c           x  -0.00000  0.00000  0.02199  0.00000  0.00000 -0.02401
                  y  -0.00000 -0.00000  0.05002  0.00000 -0.00000  0.18192
                  z   0.02347  0.03681  0.00000 -0.16185  0.15913  0.00000
 10   o           x   0.00000  0.00000 -0.53924 -0.00000  0.00000  0.01669
                  y  -0.00000 -0.00000  0.40992  0.00000 -0.00000 -0.00158
                  z   0.02622  0.02716  0.00000 -0.00978  0.03058  0.00000
 11   o           x   0.10413  0.13917 -0.08753 -0.04789  0.03731 -0.06416
                  y  -0.03496 -0.04047  0.00629 -0.17875  0.18496 -0.16306
                  z  -0.06309 -0.08355 -0.01600 -0.00569  0.01376 -0.04751
 12   h           x  -0.30581 -0.30229  0.02863  0.11725 -0.10984 -0.21578
                  y   0.15637  0.13864  0.05710  0.26171 -0.26567  0.09995
                  z  -0.17141 -0.14608 -0.00090 -0.28223  0.28431 -0.01173
 13   h           x  -0.00000  0.00000  0.01248  0.00000 -0.00000  0.04307
                  y  -0.00000 -0.00000  0.01396  0.00000 -0.00000  0.52376
                  z   0.41461  0.42196  0.00000 -0.27611  0.26435  0.00000
 14   h           x   0.30581  0.30229  0.02863 -0.11725  0.10984 -0.21578
                  y  -0.15637 -0.13864  0.05710 -0.26171  0.26567  0.09995
                  z  -0.17141 -0.14608  0.00090 -0.28223  0.28431  0.01173
 15   h           x   0.30581 -0.30229  0.02863 -0.11725 -0.10984 -0.21578
                  y  -0.15637  0.13864  0.05710 -0.26171 -0.26567  0.09995
                  z  -0.17141  0.14608  0.00090 -0.28223 -0.28431  0.01173
 16   h           x  -0.00000 -0.00000  0.01248 -0.00000 -0.00000  0.04307
                  y  -0.00000  0.00000  0.01396 -0.00000 -0.00000  0.52376
                  z   0.41461 -0.42196  0.00000 -0.27611 -0.26435 -0.00000
 17   h           x  -0.30581  0.30229  0.02863  0.11725  0.10984 -0.21578
                  y   0.15637 -0.13864  0.05710  0.26171  0.26567  0.09995
                  z  -0.17141  0.14608 -0.00090 -0.28223 -0.28431 -0.01173

reduced mass(g/mol)     2.031    2.738   19.683    3.972    4.070    4.401


       mode              25       26       27       28       29       30

     frequency         403.92   532.22   544.17   668.15   668.38   828.21

     symmetry            ag       bu       ag       bu       ag       ag  

        IR               NO       YES      NO       YES      NO       NO 
|dDIP/dQ|   (a.u.)     0.0000   0.0089   0.0000   0.0061   0.0000   0.0000
intensity (km/mol)       0.00   141.47     0.00    65.60     0.00     0.00
intensity (  %   )       0.00    34.02     0.00    15.78     0.00     0.00
 
       RAMAN             YES      NO       YES      NO       YES      YES
 
  1   c           x  -0.02455 -0.00726  0.00760  0.11883 -0.11953  0.00231
                  y   0.17927 -0.00922  0.02638  0.27178 -0.27162 -0.03267
                  z  -0.00000 -0.00000  0.00000  0.00000 -0.00000 -0.00000
  2   s           x   0.09447  0.15281 -0.14413 -0.07372  0.07355  0.02254
                  y   0.04285 -0.07669  0.06956 -0.13118  0.13150 -0.01817
                  z   0.00000  0.00000 -0.00000  0.00000  0.00000  0.00000
  3   o           x  -0.06578 -0.16142  0.16389  0.01497 -0.01333  0.00871
                  y  -0.15970  0.08644 -0.09684  0.00493 -0.00611  0.00712
                  z   0.04025 -0.28925  0.29516 -0.03337  0.03676  0.08890
  4   o           x  -0.06578 -0.16142  0.16389  0.01497 -0.01333  0.00871
                  y  -0.15970  0.08644 -0.09684  0.00493 -0.00611  0.00712
                  z  -0.04025  0.28925 -0.29516  0.03337 -0.03676 -0.08890
  5   u           x   0.00000  0.00554 -0.00000 -0.00042  0.00000  0.00000
                  y  -0.00000 -0.00246  0.00000  0.00220 -0.00000  0.00000
                  z   0.00000  0.00000 -0.00000 -0.00000 -0.00000  0.00000
  6   o           x   0.03903  0.00208  0.03325 -0.00766  0.01470 -0.41710
                  y  -0.02189 -0.00374  0.05107 -0.01179  0.01282 -0.54842
                  z  -0.00000 -0.00000 -0.00000 -0.00000 -0.00000  0.00000
  7   o           x   0.06578 -0.16142 -0.16389  0.01497  0.01333 -0.00871
                  y   0.15970  0.08644  0.09684  0.00493  0.00611 -0.00712
                  z  -0.04025 -0.28925 -0.29516 -0.03337 -0.03676 -0.08890
  8   s           x  -0.09447  0.15281  0.14413 -0.07372 -0.07355 -0.02254
                  y  -0.04285 -0.07669 -0.06956 -0.13118 -0.13150  0.01817
                  z  -0.00000 -0.00000 -0.00000 -0.00000 -0.00000  0.00000
  9   c           x   0.02455 -0.00726 -0.00760  0.11883  0.11953 -0.00231
                  y  -0.17927 -0.00922 -0.02638  0.27178  0.27162  0.03267
                  z   0.00000  0.00000 -0.00000 -0.00000 -0.00000  0.00000
 10   o           x  -0.03903  0.00208 -0.03325 -0.00766 -0.01470  0.41710
                  y   0.02189 -0.00374 -0.05107 -0.01179 -0.01282  0.54842
                  z   0.00000 -0.00000  0.00000 -0.00000  0.00000  0.00000
 11   o           x   0.06578 -0.16142 -0.16389  0.01497  0.01333 -0.00871
                  y   0.15970  0.08644  0.09684  0.00493  0.00611 -0.00712
                  z   0.04025  0.28925  0.29516  0.03337  0.03676  0.08890
 12   h           x   0.21846 -0.20163 -0.19544  0.27759  0.27723  0.02105
                  y  -0.09603 -0.10227 -0.11633  0.33601  0.33546  0.03368
                  z   0.01159 -0.00807 -0.00831  0.01464  0.01446  0.00609
 13   h           x  -0.04360  0.06552  0.06342  0.07068  0.07187 -0.01592
                  y  -0.52492  0.35993  0.33998  0.03334  0.03687 -0.06169
                  z  -0.00000  0.00000 -0.00000  0.00000  0.00000  0.00000
 14   h           x   0.21846 -0.20163 -0.19544  0.27759  0.27723  0.02105
                  y  -0.09603 -0.10227 -0.11633  0.33601  0.33546  0.03368
                  z  -0.01159  0.00807  0.00831 -0.01464 -0.01446 -0.00609
 15   h           x  -0.21846 -0.20163  0.19544  0.27759 -0.27723 -0.02105
                  y   0.09603 -0.10227  0.11633  0.33601 -0.33546 -0.03368
                  z   0.01159  0.00807 -0.00831 -0.01464  0.01446  0.00609
 16   h           x   0.04360  0.06552 -0.06342  0.07068 -0.07187  0.01592
                  y   0.52492  0.35993 -0.33998  0.03334 -0.03687  0.06169
                  z  -0.00000 -0.00000  0.00000  0.00000 -0.00000  0.00000
 17   h           x  -0.21846 -0.20163  0.19544  0.27759 -0.27723 -0.02105
                  y   0.09603 -0.10227  0.11633  0.33601 -0.33546 -0.03368
                  z  -0.01159 -0.00807  0.00831  0.01464 -0.01446 -0.00609

reduced mass(g/mol)     4.343    9.864   10.124    4.439    4.461   15.799


       mode              31       32       33       34       35       36

     frequency         870.36   918.41   918.54   938.38   938.46   996.66

     symmetry            bu       au       bg       ag       bu       bu  

        IR               YES      YES      NO       NO       YES      YES
|dDIP/dQ|   (a.u.)     0.0153   0.0028   0.0000   0.0000   0.0117   0.0143
intensity (km/mol)     415.82    13.95     0.00     0.00   242.80   364.82
intensity (  %   )     100.00     3.35     0.00     0.00    58.39    87.74
 
       RAMAN             NO       NO       YES      YES      NO       NO 
 
  1   c           x  -0.04003  0.00000 -0.00000 -0.10369 -0.10309 -0.10257
                  y   0.04197 -0.00000  0.00000  0.03348  0.03281  0.02251
                  z  -0.00000  0.10644 -0.10643 -0.00000  0.00000 -0.00000
  2   s           x  -0.00461  0.00000  0.00000  0.01072  0.00566  0.11829
                  y   0.01730 -0.00000  0.00000  0.05061  0.05625 -0.07015
                  z  -0.00000  0.00372 -0.00353 -0.00000  0.00000  0.00000
  3   o           x   0.01780  0.00882 -0.00904  0.01899  0.02159 -0.08775
                  y  -0.01865 -0.03376  0.03388 -0.05626 -0.06105  0.06384
                  z  -0.04266 -0.03222  0.03176 -0.06681 -0.07669  0.11619
  4   o           x   0.01780 -0.00882  0.00904  0.01899  0.02159 -0.08775
                  y  -0.01865  0.03376 -0.03388 -0.05626 -0.06105  0.06384
                  z   0.04266 -0.03222  0.03176  0.06681  0.07669 -0.11619
  5   u           x  -0.05050 -0.00000  0.00000 -0.00000  0.00395 -0.00135
                  y  -0.06878 -0.00000  0.00000 -0.00000  0.00455  0.00076
                  z  -0.00000  0.00001  0.00000  0.00000  0.00000 -0.00000
  6   o           x   0.37373  0.00000 -0.00000 -0.01362 -0.02475  0.00306
                  y   0.49042  0.00000 -0.00000 -0.02276 -0.03355  0.00185
                  z   0.00000 -0.00010  0.00006 -0.00000 -0.00000  0.00000
  7   o           x   0.01780  0.00882  0.00904 -0.01899  0.02159 -0.08775
                  y  -0.01865 -0.03376 -0.03388  0.05626 -0.06105  0.06384
                  z  -0.04266 -0.03222 -0.03176  0.06681 -0.07669  0.11619
  8   s           x  -0.00461 -0.00000  0.00000 -0.01072  0.00566  0.11829
                  y   0.01730 -0.00000  0.00000 -0.05061  0.05625 -0.07015
                  z  -0.00000  0.00372  0.00353 -0.00000  0.00000 -0.00000
  9   c           x  -0.04003  0.00000 -0.00000  0.10369 -0.10309 -0.10257
                  y   0.04197 -0.00000  0.00000 -0.03348  0.03281  0.02251
                  z   0.00000  0.10644  0.10643 -0.00000  0.00000  0.00000
 10   o           x   0.37373  0.00000 -0.00000  0.01362 -0.02475  0.00306
                  y   0.49042  0.00000 -0.00000  0.02276 -0.03355  0.00185
                  z  -0.00000 -0.00010 -0.00006 -0.00000 -0.00000  0.00000
 11   o           x   0.01780 -0.00882 -0.00904 -0.01899  0.02159 -0.08775
                  y  -0.01865  0.03376  0.03388  0.05626 -0.06105  0.06384
                  z   0.04266 -0.03222 -0.03176 -0.06681  0.07669 -0.11619
 12   h           x   0.09002  0.19540  0.19546 -0.24814  0.24814  0.27141
                  y   0.07251  0.42389  0.42390 -0.13117  0.13067  0.13115
                  z   0.02203 -0.09395 -0.09396 -0.04989  0.04948  0.05097
 13   h           x  -0.09135  0.00000 -0.00000  0.20754 -0.20659 -0.18682
                  y  -0.26736  0.00000 -0.00000  0.51300 -0.50825 -0.44461
                  z  -0.00000 -0.17538 -0.17531  0.00000 -0.00000 -0.00000
 14   h           x   0.09002 -0.19540 -0.19546 -0.24814  0.24814  0.27141
                  y   0.07251 -0.42389 -0.42390 -0.13117  0.13067  0.13115
                  z  -0.02203 -0.09395 -0.09396  0.04989 -0.04948 -0.05097
 15   h           x   0.09002 -0.19540  0.19546  0.24814  0.24814  0.27141
                  y   0.07251 -0.42389  0.42390  0.13117  0.13067  0.13115
                  z  -0.02203 -0.09395  0.09396 -0.04989 -0.04948 -0.05097
 16   h           x  -0.09135  0.00000 -0.00000 -0.20754 -0.20659 -0.18682
                  y  -0.26736  0.00000 -0.00000 -0.51300 -0.50825 -0.44461
                  z   0.00000 -0.17538  0.17531  0.00000 -0.00000  0.00000
 17   h           x   0.09002  0.19540 -0.19546  0.24814  0.24814  0.27141
                  y   0.07251  0.42389 -0.42390  0.13117  0.13067  0.13115
                  z   0.02203 -0.09395  0.09396  0.04989  0.04948  0.05097

reduced mass(g/mol)    14.375    1.393    1.392    1.936    2.129    3.942


       mode              37       38       39       40       41       42

     frequency        1004.45  1011.19  1014.00  1285.93  1286.05  1436.24

     symmetry            ag       bg       au       bu       ag       bu  

        IR               NO       NO       YES      YES      NO       YES
|dDIP/dQ|   (a.u.)     0.0000   0.0000   0.0137   0.0047   0.0000   0.0016
intensity (km/mol)       0.00     0.00   332.93    39.14     0.00     4.82
intensity (  %   )       0.00     0.00    80.07     9.41     0.00     1.16
 
       RAMAN             YES      YES      NO       NO       YES      NO 
 
  1   c           x  -0.10021  0.00000 -0.00000  0.04649  0.04648 -0.03433
                  y   0.02211 -0.00000  0.00000  0.08503  0.08524  0.02368
                  z  -0.00000 -0.07054 -0.07068 -0.00000 -0.00000  0.00000
  2   s           x   0.12490 -0.00000  0.00000  0.00221  0.00250 -0.00524
                  y  -0.08008  0.00000 -0.00000 -0.00276 -0.00318  0.00118
                  z   0.00000  0.25622  0.25503  0.00000  0.00000  0.00000
  3   o           x  -0.09943  0.11255  0.11014 -0.00264 -0.00308  0.00205
                  y   0.07624 -0.11801 -0.11543  0.00188  0.00247  0.00031
                  z   0.12510 -0.24808 -0.24913  0.00283  0.00307  0.00047
  4   o           x  -0.09943 -0.11255 -0.11014 -0.00264 -0.00308  0.00205
                  y   0.07624  0.11801  0.11543  0.00188  0.00247  0.00031
                  z  -0.12510 -0.24808 -0.24913 -0.00283 -0.00307 -0.00047
  5   u           x  -0.00000  0.00000 -0.00000  0.00041  0.00000 -0.00015
                  y   0.00000 -0.00000  0.00000  0.00054  0.00000 -0.00027
                  z  -0.00000 -0.00000  0.00423  0.00000  0.00000  0.00000
  6   o           x   0.02209 -0.00000  0.00000 -0.00178 -0.00016  0.00069
                  y   0.03112 -0.00000  0.00000 -0.00393 -0.00199  0.00180
                  z   0.00000 -0.00059 -0.01175 -0.00000  0.00000  0.00000
  7   o           x   0.09943 -0.11255  0.11014 -0.00264  0.00308  0.00205
                  y  -0.07624  0.11801 -0.11543  0.00188 -0.00247  0.00031
                  z  -0.12510  0.24808 -0.24913  0.00283 -0.00307  0.00047
  8   s           x  -0.12490  0.00000 -0.00000  0.00221 -0.00250 -0.00524
                  y   0.08008 -0.00000  0.00000 -0.00276  0.00318  0.00118
                  z  -0.00000 -0.25622  0.25503  0.00000 -0.00000  0.00000
  9   c           x   0.10021 -0.00000  0.00000  0.04649 -0.04648 -0.03433
                  y  -0.02211  0.00000 -0.00000  0.08503 -0.08524  0.02368
                  z   0.00000  0.07054 -0.07068 -0.00000  0.00000  0.00000
 10   o           x  -0.02209  0.00000 -0.00000 -0.00178  0.00016  0.00069
                  y  -0.03112  0.00000 -0.00000 -0.00393  0.00199  0.00180
                  z   0.00000  0.00059 -0.01175  0.00000 -0.00000  0.00000
 11   o           x   0.09943  0.11255 -0.11014 -0.00264  0.00308  0.00205
                  y  -0.07624 -0.11801  0.11543  0.00188 -0.00247  0.00031
                  z   0.12510  0.24808 -0.24913 -0.00283  0.00307 -0.00047
 12   h           x  -0.27389  0.13054 -0.13310 -0.25015  0.24968  0.25091
                  y  -0.13191  0.29912 -0.30014 -0.28415  0.28425 -0.28574
                  z  -0.05011 -0.08322  0.08307  0.11384 -0.11411  0.27278
 13   h           x   0.18063 -0.00000  0.00000 -0.05988  0.05999  0.01544
                  y   0.42522 -0.00000  0.00000 -0.41762  0.41784  0.24488
                  z  -0.00000 -0.16193  0.15932  0.00000 -0.00000 -0.00000
 14   h           x  -0.27389 -0.13054  0.13310 -0.25015  0.24968  0.25091
                  y  -0.13191 -0.29912  0.30014 -0.28415  0.28425 -0.28574
                  z   0.05011 -0.08322  0.08307 -0.11384  0.11411 -0.27278
 15   h           x   0.27389  0.13054  0.13310 -0.25015 -0.24968  0.25091
                  y   0.13191  0.29912  0.30014 -0.28415 -0.28425 -0.28574
                  z  -0.05011  0.08322  0.08307 -0.11384 -0.11411 -0.27278
 16   h           x  -0.18063  0.00000 -0.00000 -0.05988 -0.05999  0.01544
                  y  -0.42522  0.00000 -0.00000 -0.41762 -0.41784  0.24488
                  z   0.00000  0.16193  0.15932  0.00000  0.00000 -0.00000
 17   h           x   0.27389 -0.13054 -0.13310 -0.25015 -0.24968  0.25091
                  y   0.13191 -0.29912 -0.30014 -0.28415 -0.28425 -0.28574
                  z   0.05011  0.08322  0.08307  0.11384  0.11411  0.27278

reduced mass(g/mol)     4.531   10.480   10.414    1.217    1.218    1.048


       mode              43       44       45       46       47       48

     frequency        1436.36  1448.74  1448.77  3038.15  3038.35  3149.06

     symmetry            ag       bg       au       bu       ag       bg  

        IR               NO       NO       YES      YES      NO       NO 
|dDIP/dQ|   (a.u.)     0.0000   0.0000   0.0023   0.0061   0.0000   0.0000
intensity (km/mol)       0.00     0.00     9.25    66.70     0.00     0.00
intensity (  %   )       0.00     0.00     2.23    16.04     0.00     0.00
 
       RAMAN             YES      YES      NO       NO       YES      YES
 
  1   c           x  -0.03437  0.00000  0.00000  0.01640 -0.01638  0.00000
                  y   0.02355 -0.00000 -0.00000  0.02488 -0.02486 -0.00000
                  z   0.00000  0.04527  0.04530  0.00000 -0.00000 -0.06644
  2   s           x  -0.00535  0.00000  0.00000 -0.00008  0.00010 -0.00000
                  y   0.00135 -0.00000 -0.00000 -0.00009  0.00006  0.00000
                  z   0.00000  0.00290  0.00277  0.00000  0.00000 -0.00052
  3   o           x   0.00226 -0.00000 -0.00006  0.00000 -0.00006 -0.00014
                  y   0.00004  0.00036  0.00043  0.00005  0.00002 -0.00000
                  z   0.00043 -0.00024 -0.00008  0.00014 -0.00014  0.00032
  4   o           x   0.00226  0.00000  0.00006  0.00000 -0.00006  0.00014
                  y   0.00004 -0.00036 -0.00043  0.00005  0.00002  0.00000
                  z  -0.00043 -0.00024 -0.00008 -0.00014  0.00014  0.00032
  5   u           x  -0.00000 -0.00000  0.00000 -0.00003  0.00000 -0.00000
                  y  -0.00000  0.00000  0.00000 -0.00005  0.00000 -0.00000
                  z  -0.00000  0.00000 -0.00003  0.00000  0.00000 -0.00000
  6   o           x  -0.00003  0.00000 -0.00000  0.00027 -0.00017  0.00000
                  y   0.00093  0.00000 -0.00000  0.00032 -0.00016  0.00000
                  z   0.00000  0.00078  0.00069 -0.00000 -0.00000  0.00001
  7   o           x  -0.00226  0.00000 -0.00006  0.00000  0.00006  0.00014
                  y  -0.00004 -0.00036  0.00043  0.00005 -0.00002  0.00000
                  z  -0.00043  0.00024 -0.00008  0.00014  0.00014 -0.00032
  8   s           x   0.00535 -0.00000  0.00000 -0.00008 -0.00010  0.00000
                  y  -0.00135  0.00000 -0.00000 -0.00009 -0.00006  0.00000
                  z  -0.00000 -0.00290  0.00277  0.00000  0.00000  0.00052
  9   c           x   0.03437 -0.00000  0.00000  0.01640  0.01638  0.00000
                  y  -0.02355  0.00000 -0.00000  0.02488  0.02486 -0.00000
                  z  -0.00000 -0.04527  0.04530  0.00000  0.00000  0.06644
 10   o           x   0.00003  0.00000 -0.00000  0.00027  0.00017  0.00000
                  y  -0.00093  0.00000 -0.00000  0.00032  0.00016  0.00000
                  z  -0.00000 -0.00078  0.00069  0.00000  0.00000 -0.00001
 11   o           x  -0.00226 -0.00000  0.00006  0.00000  0.00006 -0.00014
                  y  -0.00004  0.00036 -0.00043  0.00005 -0.00002 -0.00000
                  z   0.00043  0.00024 -0.00008 -0.00014 -0.00014 -0.00032
 12   h           x  -0.25093  0.32529 -0.32525  0.11024  0.11025  0.13934
                  y   0.28562  0.03857 -0.03847 -0.19242 -0.19246 -0.25132
                  z  -0.27270  0.05257 -0.05261 -0.33231 -0.33234 -0.40635
 13   h           x  -0.01554  0.00000  0.00000 -0.41446 -0.41435 -0.00000
                  y  -0.24529 -0.00000 -0.00000  0.09014  0.09022  0.00000
                  z   0.00000  0.52707 -0.52713  0.00000  0.00000  0.01394
 14   h           x  -0.25093 -0.32529  0.32525  0.11024  0.11025 -0.13934
                  y   0.28562 -0.03857  0.03847 -0.19242 -0.19246  0.25132
                  z   0.27270  0.05257 -0.05261  0.33231  0.33234 -0.40635
 15   h           x   0.25093  0.32529  0.32525  0.11024 -0.11025  0.13934
                  y  -0.28562  0.03857  0.03847 -0.19242  0.19246 -0.25132
                  z  -0.27270 -0.05257 -0.05261  0.33231 -0.33234  0.40635
 16   h           x   0.01554 -0.00000 -0.00000 -0.41446  0.41435 -0.00000
                  y   0.24529 -0.00000 -0.00000  0.09014 -0.09022  0.00000
                  z  -0.00000 -0.52707 -0.52713  0.00000 -0.00000 -0.01394
 17   h           x   0.25093 -0.32529 -0.32525  0.11024 -0.11025 -0.13934
                  y  -0.28562 -0.03857 -0.03847 -0.19242  0.19246  0.25132
                  z   0.27270 -0.05257 -0.05261 -0.33231  0.33234  0.40635

reduced mass(g/mol)     1.048    1.054    1.054    1.028    1.027    1.105


       mode              49       50       51

     frequency        3149.09  3154.57  3154.59

     symmetry            au       ag       bu  

        IR               YES      NO       YES
|dDIP/dQ|   (a.u.)     0.0036   0.0000   0.0008
intensity (km/mol)      22.84     0.00     1.20
intensity (  %   )       5.49     0.00     0.29
 
       RAMAN             NO       YES      NO 
 
  1   c           x   0.00000  0.05828  0.05828
                  y  -0.00000 -0.03347 -0.03347
                  z  -0.06644  0.00000  0.00000
  2   s           x   0.00000  0.00041  0.00041
                  y  -0.00000  0.00004  0.00003
                  z  -0.00053  0.00000  0.00000
  3   o           x  -0.00015 -0.00011 -0.00012
                  y   0.00000  0.00000  0.00003
                  z   0.00033  0.00003  0.00003
  4   o           x   0.00015 -0.00011 -0.00012
                  y  -0.00000  0.00000  0.00003
                  z   0.00033 -0.00003 -0.00003
  5   u           x   0.00000 -0.00000 -0.00004
                  y   0.00000 -0.00000 -0.00003
                  z  -0.00001  0.00000 -0.00000
  6   o           x  -0.00000  0.00023  0.00033
                  y  -0.00000  0.00018  0.00024
                  z   0.00004 -0.00000  0.00000
  7   o           x  -0.00015  0.00011 -0.00012
                  y   0.00000 -0.00000  0.00003
                  z   0.00033 -0.00003  0.00003
  8   s           x  -0.00000 -0.00041  0.00041
                  y  -0.00000 -0.00004  0.00003
                  z  -0.00053  0.00000 -0.00000
  9   c           x  -0.00000 -0.05828  0.05828
                  y   0.00000  0.03347 -0.03347
                  z  -0.06644  0.00000 -0.00000
 10   o           x  -0.00000 -0.00023  0.00033
                  y  -0.00000 -0.00018  0.00024
                  z   0.00004 -0.00000  0.00000
 11   o           x   0.00015  0.00011 -0.00012
                  y  -0.00000 -0.00000  0.00003
                  z   0.00033  0.00003 -0.00003
 12   h           x  -0.13935  0.07619 -0.07621
                  y   0.25133 -0.14507  0.14512
                  z   0.40634 -0.25120  0.25126
 13   h           x   0.00000  0.55166 -0.55159
                  y  -0.00000 -0.10604  0.10603
                  z  -0.01396  0.00000 -0.00000
 14   h           x   0.13935  0.07619 -0.07621
                  y  -0.25133 -0.14507  0.14512
                  z   0.40634  0.25120 -0.25126
 15   h           x   0.13935 -0.07619 -0.07621
                  y  -0.25133  0.14507  0.14512
                  z   0.40634 -0.25120 -0.25126
 16   h           x  -0.00000 -0.55166 -0.55159
                  y   0.00000  0.10604  0.10603
                  z  -0.01396  0.00000  0.00000
 17   h           x  -0.13935 -0.07619 -0.07621
                  y   0.25133  0.14507  0.14512
                  z   0.40634  0.25120  0.25126

reduced mass(g/mol)     1.105    1.107    1.107
 

         **************************************************************
         *                                                            *
         *  zero point VIBRATIONAL energy  :      0.0975049  Hartree  *
         *    SCF-energy                   :  -1804.1599145           *
         *    SCF + E(vib0)                :  -1804.0624096           *
         *                                                            *
         **************************************************************




 time elapsed for vibrational analysis     0.41 sec


    ------------------------------------------------------------------------
         total  cpu-time : 14 hours 24 minutes and 52 seconds
         total wall-time :  1 hours 27 minutes and  6 seconds
    ------------------------------------------------------------------------

   ****  force : all done  ****


    2019-12-03 19:09:45.723 

aoforce ended normally 
