
   OpenMP run-time library returned nthreads =  8
 operating system is UNIX !

 force (u-4-0.local) : TURBOMOLE V7.2 ( 21471 ) 11 Oct 2017 at 17:04:51
 Copyright (C) 2017 TURBOMOLE GmbH, Karlsruhe


    2018-02-13 03:27:40.013 



                             T U R B O M O L E   

                          a o f o r c e - program

                        using direct algorithms for

                       SCF level calculations of
                         * harmonic force constants
                         * hyperpolarizabilities
                         * IR and RAMAN intensities
                         * VCD intensities

                       DFT level calculations of
                         * harmonic force constants
                         * IR intensities
                                                   
       Stephan Boecker, Peter Deglmann, Filipp Furche and Marco Haeser
                          Quantum Chemistry Group
                          Universitaet  Karlsruhe
                                   Germany

 
 

          OpenMP Shared-Memory Parallelization:  8 CPUs.

            By: Erik P. Almaraz and Filipp Furche
            Copyright 2009-2011 by UCI and TURBOMOLE GmbH.

 
 
     References :
 
       RI-J implementation:
         Peter Deglmann, Klaus May, Filipp Furche, Reinhart Ahlrichs
                 Chem. Phys. Lett. 384:103 (2004)
 
       Efficiency, technical details:
         Peter Deglmann, Filipp Furche, Reinhart Ahlrichs
                 Chem. Phys. Lett. 362:511 (2002)
 
       Search of lowest eigenvalues by iterative diagonalization:
         Peter Deglmann, Filipp Furche
                 J. Chem. Phys. 117:9535 (2002)
 
       Vibrational circular dichroism implementation:
        Kevin Reiter, Michael Kuehn, Florian Weigend
                 J. Chem. Phys. 146:054102 (2017)  
 
 


              +--------------------------------------------------+
              | Atomic coordinate, charge and isotop information |
              +--------------------------------------------------+

                    atomic coordinates            atom    charge  isotop
         -0.00121862    7.13942416   -2.23834562    c      6.000     0
          0.00635717    5.82243088    0.93009992    s     16.000     0
          2.32800341    4.09235028    0.83616191    o      8.000     0
         -2.32043240    4.09924295    0.85040324    o      8.000     0
         -0.00138172    0.00002121    0.00006240    np    93.000     0
         -0.01810647    0.82317229   -3.26095208    o      8.000     0
         -2.32838800   -4.09396824   -0.83672223    o      8.000     0
         -0.00550102   -5.82237565   -0.93011854    s     16.000     0
          0.00222732   -7.13946539    2.23828702    c      6.000     0
          0.01532475   -0.82313593    3.26107739    o      8.000     0
          2.32005648   -4.09752111   -0.84976058    o      8.000     0
          1.69613197   -8.29333951    2.45294982    h      1.000     0
          0.00993072   -5.54022969    3.53856889    h      1.000     0
         -1.69492518   -8.28637028    2.46430567    h      1.000     0
          1.69668057    8.28512756   -2.46484299    h      1.000     0
         -0.01039159    5.54015253   -3.53857375    h      1.000     0
         -1.69436741    8.29448394   -2.45260047    h      1.000     0
 
       center of nuclear mass  :   -0.00079944    0.00001959    0.00003890
       center of nuclear charge:   -0.00070172    0.00001861    0.00003467

              +--------------------------------------------------+
              |               basis set information              |
              +--------------------------------------------------+

              we will work with the 1s 3p 5d 7f 9g ... basis set
              ...i.e. with spherical basis functions...

   type   atoms  prim   cont   basis
   ---------------------------------------------------------------------------
    c        2     66     46   aug-cc-pVTZ   [5s4p3d2f|19s6p3d2f]
    s        2    122     50   aug-cc-pVTZ   [6s5p3d2f|42s17p3d2f]
    o        6     66     46   aug-cc-pVTZ   [5s4p3d2f|19s6p3d2f]
    np       1    213    117   SVP(6g)   [10s9p5d4f3g|14s13p10d8f6g]
    h        6     25     23   aug-cc-pVTZ   [4s3p2d|6s3p2d]
   ---------------------------------------------------------------------------
   total:   17   1135    723
   ---------------------------------------------------------------------------

   total number of primitive shells          :  186
   total number of contracted shells         :  229
   total number of cartesian basis functions :  860
   total number of SCF-basis functions       :  723

 number of unique ecp types :                     1
 
             FOUND RI-J FLAG !
 

 NOTE: THIS IS A PRELIMINARY IMPLEMENTATION. THE RI APPROXIMATION IS
       PRESENTLY USED FOR CPKS CONTRIBUTIONS TO THE HESSIAN ONLY! SEE
       MANUAL FOR FURTHER DETAILS.

  
 AUXILIARY BASIS SET information:

              we will work with the 1s 3p 5d 7f 9g ... basis set
              ...i.e. with spherical basis functions...

   type   atoms  prim   cont   basis
   ---------------------------------------------------------------------------
    c        2     70     49   aug-cc-pVTZ   [6s4p3d1f1g|12s5p4d2f1g]
    s        2     77     51   aug-cc-pVTZ   [8s4p3d1f1g|14s5p5d2f1g]
    o        6     70     49   aug-cc-pVTZ   [6s4p3d1f1g|12s5p4d2f1g]
    np       1    268    205   def-TZVPP   [14s7p7d6f5g2h2i|18s7p7d6f6g3h5i]
    h        6     16     11   aug-cc-pVTZ   [3s1p1d|5s2p1d]
   ---------------------------------------------------------------------------
   total:   17   1078    765
   ---------------------------------------------------------------------------

   total number of primitive shells          :  135
   total number of contracted shells         :  227
   total number of cartesian basis functions :  996
   total number of SCF-basis functions       :  765


 symmetry group of the molecule :   c1 

 the group has the following generators :
   c1(z)

    1 symmetry operations found

 there are 1 real representations :   a   

 maximum number of shells which are related by symmetry :  1


 determining totally symmetric integral contributions 
    - equivalent to irreducible tensor elements - 
 which can be formed within each triple of representations :

             representation triple      contributions

              a     a     a               1
       UHF mode switched on !

    mo occupation :
   irrep   mo's   occupied
    a      723       67
 
 number of basis functions   :                    723
 number of occupied orbitals :                     67
 
 ALPHA-Occupation:                    67
 BETA-Occupation :                    65
  MOs are in ASCII format !


 reading orbital data $uhfmo_alpha  from file alpha
 orbital characterization : scfconv=7

 reading orbital data $uhfmo_beta  from file beta
 orbital characterization : scfconv=7
 time elapsed for calculating density matrices :   0.602 sec

 number of non-frozen orbitals          :   723
 number of non-frozen occupied orbitals :    67

 number of non-frozen orbitals          :   723
 number of non-frozen occupied orbitals :    65
 Blocking parameters 
 shells:
    index      start shell   last shell  start bf    last bf    #bf 
       1             1         229             1        860    860
  
           ----------------------
               RI - INFORMATION
           ----------------------

 biggest AO integral is expected to be    25.741671788

 Threshold for integral neglect (rithr2):   0.29E-11
 Threshold for integral neglect (rithr1):   0.29E-11

 Contributions to RI integral batches: 
  neglected integral batches:                  3765
  direct contribution:                        14666
  memory contribution:                  7904
 Core memory available (ricore):               500 MiB
 Core memory needed for (P|Q) and Cholesky:      5 MiB
 Core memory used for integrals:               340 MiB
 
 ****************************************
 Memory allocated for RIDFT: 345 MiB
 ****************************************
 
  
           ------------------
           density functional
           ------------------
 PBE0 hybrid functional
 exchange:    3/4 (LDA+PBE) + 1/4 HF
 correlation: LDA (PW) + PBE

 iterations will be done with small grid
  
 spherical integration : Lebedev's spherical grid
 spherical gridsize    :                     4
    i.e. gridpoints    :                   434
 value for diffuse not defined
 radial integration    : Chebyshev 2nd kind (scaling 3)
 radial gridsize       :                     6
 integration cells     :                    17
 partition function    : becke
 partition sharpness   :                     3
  
 
 Derivatives of quadrature weights will be included
 
          Overall gridpoints after grid construction =        185979
 Ordering of quadrature gridpoints disabled.
 
 
 
 
 OCCUPIED-OCCUPIED TENSOR SPACES :

          IRREP   tensor space dimension   number of roots

           a              8714                  45
 
 OCCUPIED-VIRTUAL TENSOR SPACES :

          IRREP   tensor space dimension   number of roots

           a             86722                  45
 
 
 
 
 CONSTRUCTING integral bounds

 setting up bound for integral derivative estimation

 increment for numerical differentiation : 0.00050000
 W A R N I N G : d2ixjz =-.235271022301E-08
 W A R N I N G : d2ixjz =-.473413869509E-09
 W A R N I N G : d2ixjz =-.192755083521E-07
 W A R N I N G : d2ixjz =-.323097571856E-03
 
 machine precision:   2.220446049250313E-016

 integral neglect threshold       :  0.10E-09
 integral storage threshold THIZE :  0.10E-04
 integral storage threshold THIME :         5

 
 
 
 PREPARING NUMERICAL INTEGRATION
 
 Remaining core memory for DFT =                  3132 MB
 
 Memory needed per atom    =                 17354 KiB
 
     i. e.                    17 atoms per loop

 Calculating ground state density on molecular grid

 Integral of ground state total density: Na =   131.9999719842270    

 Integral of ground state spin density:  Nb =   2.000000465496380    


 
 
 CONSTRUCTING first deriv. of <mu|x,y,z|nu> -> Dip. deriv.
  dipole integral derivatives will be neglected if
  expon. factor <0.581395E-12
      ...terminated. cpu:       1.36       wall:       0.17
 
 
 
 
 CONSTRUCTING first deriv. of  <mu|nu>
                               <mu|h|nu>    -> RHS
              second deriv. of <mu|nu>      -> Hessian
                               <mu|h|nu>    -> Hessian
                               nucl. rep.   -> Hessian
     integrals are neglected if expon. factor <  5.813953488372092E-014
 
 CONSTRUCTING ECP contribution              -> RHS
 
                                            -> Hessian
      ...terminated. cpu:      59.26       wall:      55.12
 
 
 
 
 CONSTRUCTING second deriv. of 2e energy    -> Hessian
   treating Coulomb (and exchange) contribution
     integrals will be neglected if total contribution <  5.813953488372093E-010
      ...terminated. cpu:   14897.93       wall:    1862.53
   treating exchange-correlation contribution
      ...terminated. cpu:    5381.71       wall:     674.57
 
 
 
 
 CONSTRUCTING S(i,j)xi
      ...terminated. cpu:       0.46       wall:       0.23
 
 
 
 
 CONSTRUCTING <i|x,y,z|j>*S(i,j)xi          -> Dip. deriv.
      ...terminated. cpu:       1.59       wall:       0.27
 
 
 
 
 CONSTRUCTING epsilon(i)*S(i,j)xi*S(i,j)chi -> Hessian
      ...terminated. cpu:       0.04       wall:       0.00
 
 
 
 
 CONSTRUCTING G(a,i)[S(k,l)xi]              -> RHS
              G(i,j)[S(k,l)xi]*S(i,j)chi    -> Hessian
 
         Maximum core memory set to                   4000 MB
         This corresponds to                   351 vectors in CAO basis
      ...terminated. cpu:   34020.76       wall:    4254.53
 
 
 
 
 CONSTRUCTING G(mu,nu)[D(kap,lam)]xi
 
          Maximum core memory set to                   4000 MB
          Atoms treated simultaneously :                    17
      ...terminated. cpu:   17475.23       wall:    2185.81
 
 
 
 
 CONSTRUCTING F(a,i)xi                      -> RHS
              F(i,j)xi*S(i,j)chi            -> Hessian
 
        Maximum core memory set to                  4000 MB
        This corresponds to                   633 vectors in CAO basis
      ...terminated. cpu:      48.98       wall:       8.37
 
 
 
 
 CONSTRUCTING epsilon(i)*S(a,i)xi           -> RHS
      ...terminated. cpu:       3.17       wall:       2.97
 
 
 
 
 SOLVING CPHF equations
 
 Residuum convergence criterium   :  1.000000000000000E-005
 
 Maximum number of Davidson iterations set to                    25
  Switching to small grid
        preparing numerical integration ....
          Overall gridpoints after grid construction =         55088

 Calculating ground state density on molecular grid

 Integral of ground state total density: Na =   131.9993029718990    

 Integral of ground state spin density:  Nb =   2.000004323330828    




                       Nonorthonormal Krylov Space Iteration


 total number of roots to be determined:  45


 maximum core memory set to  4000 MB,
 corresponding to      351 vectors in CAO basis


 maximum number of simultaneously treated vectors (including degeneracy):       45


 Iteration IRREP Converged      Max. Euclidean
                 roots          residual norm

    1       a        0        1.378894056762934D-01
 
    2       a        0        2.941482667507840D-02
 
    3       a        0        8.237249974390598D-03
 
    4       a        0        5.396874454631149D-03
 
    5       a        0        7.733899768753895D-03
 
    6       a        0        3.304369572003391D-03
 
    7       a        0        6.221693404166163D-04
 
    8       a       16        7.851274904522423D-05
 
    9       a       45        9.804838814829760D-06
 

 converged!

  Switching to fine grid
        preparing numerical integration ....
          Overall gridpoints after grid construction =        185979

 Calculating ground state density on molecular grid

 Integral of ground state total density: Na =   131.9999719842277    

 Integral of ground state spin density:  Nb =   2.000000465496399    



 Iteration IRREP Converged      Max. Euclidean
                 roots          residual norm

   10       a        0        4.816859143178383D-04
 

 NOTE: Residual norms are larger than 1.00D-05 due to mgrid option!

      ...terminated. cpu:  206146.20       wall:   25822.13
 
 
 
 
 CONSTRUCTING <a|x,y,z|i>*U(a,i)xi          -> Dip. deriv.
      ...terminated. cpu:       2.69       wall:       0.34
 
 
 
 
 CONSTRUCTING RHS(a,i)xi*U(a,i)chi          -> Hessian
      ...terminated. cpu:       0.47       wall:       0.06
 
 
 
 

            -----------------------
            permanent dipole moment
            -----------------------

                                   x                y                z
    electronic part       :    0.0513086151    -0.0023153548    -0.0029156259
     nuclear   part       :   -0.0511247994     0.0022825993     0.0028779851
     total                :    0.0001838156    -0.0000327555    -0.0000376408

 with reference to the point :   0.0000000        0.0000000        0.0000000
 (given in atomic units)
    | dipole |       :    0.0004841242  debye

   ***  dipole moment & cartesian dipole gradients written onto
        $dipole, $dipgrad,  file=<dipgrad>  ***

             -----------------------------------
             rotational and vibrational analysis
             -----------------------------------


            ==============================================================
            ATOMIC WEIGHTS (average over the natural occurance of isotops)
            ==============================================================
            ('*' denotes special isotop !)
              1     c                12.01115
              2     s                32.06400
              3     o                15.99940
              4     o                15.99940
              5     np              237.04820
              6     o                15.99940
              7     o                15.99940
              8     s                32.06400
              9     c                12.01115
             10     o                15.99940
             11     o                15.99940
             12     h                 1.00797
             13     h                 1.00797
             14     h                 1.00797
             15     h                 1.00797
             16     h                 1.00797
             17     h                 1.00797

          -------------------------------------------------
          CARTESIAN FORCE CONSTANT MATRIX (hartree/bohr**2)
         (translational & rotational space projected out)
          -------------------------------------------------

   ATOM              1 c                           2 s 
                  dx        dy        dz        dx        dy        dz
   1 c     dx  0.5653188
           dy  0.0002279 0.5384018
           dz -0.0005014 0.0791091 0.3655945
   2 s     dx -0.0374013-0.0000459-0.0002908 0.5202718
           dy  0.0000773-0.0474650 0.0246651 0.0002634 0.4790321
           dz -0.0003654-0.0221292-0.1454556-0.0007923 0.0404123 0.2916777
   3 o     dx -0.0089643 0.0086442-0.0039839-0.2469153 0.1415403 0.0061742
           dy  0.0183855-0.0096515 0.0032315 0.1571863-0.1968595-0.0126007
           dz -0.0217791 0.0262752 0.0092868 0.0212598-0.0315426-0.0608397
   4 o     dx -0.0089343-0.0084928 0.0041205-0.2480815-0.1418318-0.0050090
           dy -0.0184126-0.0096102 0.0032992-0.1572835-0.1961796-0.0113299
           dz  0.0219869 0.0262683 0.0091355-0.0202067-0.0305345-0.0606891
   5 np    dx -0.0031275-0.0000003-0.0000159 0.0260784-0.0001152-0.0000131
           dy -0.0000209 0.0004845-0.0024120 0.0001497-0.0399609-0.0031187
           dz  0.0000099 0.0017854-0.0007293 0.0000080-0.0125403 0.0112775
   6 o     dx  0.0005200 0.0000218 0.0000288-0.0033191 0.0000876-0.0001054
           dy -0.0000222-0.0005635 0.0011945 0.0002825-0.0013238 0.0035392
           dz -0.0000036-0.0001006 0.0021047 0.0000959 0.0096335-0.0052638
   7 o     dx  0.0000994-0.0000229 0.0000451-0.0009942 0.0005998 0.0000140
           dy  0.0001151-0.0003174 0.0005145-0.0019946 0.0028930-0.0001913
           dz -0.0000693-0.0000661 0.0001571 0.0005587 0.0006935-0.0002880
   8 s     dx  0.0000301-0.0000214-0.0000097-0.0006098 0.0000051 0.0001195
           dy -0.0000023 0.0002087-0.0003893 0.0000013-0.0023499 0.0000078
           dz -0.0000131-0.0000166-0.0000375 0.0001205 0.0000076 0.0000843
   9 c     dx -0.0000074 0.0000021-0.0000001 0.0000300-0.0000022-0.0000128
           dy  0.0000021-0.0000225 0.0000348-0.0000219 0.0002087-0.0000166
           dz -0.0000002 0.0000348-0.0000554-0.0000099-0.0003893-0.0000375
  10 o     dx  0.0009163-0.0000153-0.0000085-0.0043172-0.0000382 0.0000663
           dy  0.0000483-0.0003369 0.0004426-0.0003499 0.0032891-0.0006382
           dz  0.0000072 0.0003178-0.0004103-0.0001995-0.0032757-0.0023812
  11 o     dx  0.0001001 0.0000270-0.0000418-0.0010096-0.0005862-0.0000222
           dy -0.0000893-0.0002796 0.0005294 0.0017930 0.0028777-0.0003897
           dz  0.0000619-0.0000850 0.0001484-0.0004534 0.0006842-0.0001834
  12 h     dx -0.0000026 0.0000086-0.0000161 0.0000150-0.0000816 0.0000054
           dy -0.0000051-0.0000094 0.0000150 0.0000516 0.0001039-0.0000069
           dz -0.0000023 0.0000018-0.0000039 0.0000366-0.0000079-0.0000107
  13 h     dx -0.0000092 0.0000001 0.0000003 0.0000966-0.0000003-0.0000002
           dy -0.0000015 0.0000282-0.0000657 0.0000117-0.0003372 0.0000623
           dz  0.0000007-0.0000080 0.0000173-0.0000074 0.0000937-0.0000064
  14 h     dx -0.0000021-0.0000074 0.0000167 0.0000124 0.0000818-0.0000124
           dy  0.0000055-0.0000090 0.0000152-0.0000552 0.0001030-0.0000079
           dz  0.0000012 0.0000007-0.0000044-0.0000262-0.0000081-0.0000056
  15 h     dx -0.2319098-0.1260591 0.0237715-0.0022364 0.0009434-0.0012456
           dy -0.1267892-0.1293113 0.0139563-0.0080922-0.0063374-0.0028842
           dz  0.0263719 0.0161534-0.0446095 0.0189830 0.0102819 0.0031747
  16 h     dx -0.0457722-0.0009848-0.0007715 0.0007082-0.0000473-0.0000798
           dy -0.0009566-0.2108397-0.1373127 0.0000533 0.0086800 0.0122494
           dz -0.0007822-0.1429245-0.1508854-0.0001593-0.0185771-0.0343787
  17 h     dx -0.2308541 0.1267181-0.0223431-0.0023279-0.0008959 0.0012788
           dy  0.1274379-0.1307072 0.0131724 0.0080505-0.0063741-0.0029577
           dz -0.0249232 0.0153836-0.0442530-0.0189172 0.0104038 0.0033256

   ATOM              3 o                           4 o 
                  dx        dy        dz        dx        dy        dz
   3 o     dx  0.3024238
           dy -0.1538837 0.1902952
           dz  0.0043260-0.0011759 0.0477438
   4 o     dx -0.0331247-0.0136229-0.0006857 0.3034382
           dy  0.0139186 0.0365557 0.0080199 0.1537805 0.1892731
           dz  0.0009464 0.0081411 0.0134700-0.0057862-0.0020263 0.0476188
   5 np    dx -0.0204447-0.0014608-0.0006011-0.0204168 0.0015455 0.0004561
           dy -0.0110990-0.0134238 0.0011738 0.0110267-0.0136558 0.0012416
           dz -0.0047875 0.0030196-0.0168914 0.0047536 0.0028980-0.0168688
   6 o     dx  0.0020159-0.0014092-0.0045536 0.0021733 0.0014766 0.0044254
           dy -0.0009985 0.0051067-0.0054991 0.0008724 0.0046430-0.0053036
           dz -0.0011611-0.0129929-0.0001534 0.0010238-0.0131939 0.0000503
   7 o     dx  0.0003044-0.0010690-0.0001410 0.0017950-0.0003652-0.0001094
           dy -0.0010769-0.0077008-0.0005739 0.0003610-0.0017242-0.0010709
           dz -0.0001415-0.0005739-0.0001965 0.0000913-0.0010201 0.0002296
   8 s     dx -0.0009999-0.0019959 0.0005575-0.0010042 0.0017915-0.0004542
           dy  0.0006006 0.0028905 0.0006942-0.0005855 0.0028801 0.0006834
           dz  0.0000135-0.0001903-0.0002892-0.0000230-0.0003903-0.0001822
   9 c     dx  0.0000998 0.0001149-0.0000694 0.0000998-0.0000895 0.0000617
           dy -0.0000230-0.0003178-0.0000661 0.0000270-0.0002792-0.0000850
           dz  0.0000454 0.0005144 0.0001569-0.0000415 0.0005295 0.0001485
  10 o     dx  0.0021010-0.0024465 0.0022182 0.0020280 0.0023572-0.0020546
           dy -0.0001751-0.0043554 0.0027700 0.0003125-0.0037575 0.0024777
           dz  0.0028382 0.0083644 0.0064020-0.0027484 0.0086579 0.0061401
  11 o     dx  0.0017973 0.0003575 0.0000916 0.0003148 0.0010797 0.0001272
           dy -0.0003617-0.0017241-0.0010186 0.0010722-0.0073311-0.0007644
           dz -0.0001098-0.0010699 0.0002292 0.0001266-0.0007644-0.0001089
  12 h     dx  0.0000151 0.0001315 0.0000003 0.0000178 0.0000772 0.0000296
           dy -0.0000674-0.0001152-0.0000130-0.0000347-0.0001413-0.0000273
           dz  0.0000095 0.0000852 0.0000068 0.0000034-0.0000099 0.0000367
  13 h     dx -0.0000758 0.0000295-0.0000053-0.0000763-0.0000284 0.0000062
           dy  0.0000248 0.0003961-0.0000049-0.0000252 0.0003765 0.0000040
           dz -0.0000096-0.0000947 0.0000025 0.0000108-0.0000825-0.0000023
  14 h     dx  0.0000176-0.0000736-0.0000315 0.0000151-0.0001233-0.0000043
           dy  0.0000341-0.0001416-0.0000274 0.0000672-0.0001106-0.0000145
           dz -0.0000042-0.0000055 0.0000344-0.0000107 0.0000709 0.0000138
  15 h     dx  0.0010219 0.0001725-0.0002842 0.0014572 0.0002266 0.0006376
           dy  0.0021599 0.0005707-0.0005555-0.0013489-0.0009811 0.0042524
           dz -0.0011621-0.0015491 0.0007961 0.0028892 0.0058068-0.0071635
  16 h     dx -0.0007148-0.0002210 0.0003750-0.0007180 0.0002319-0.0003390
           dy -0.0005965-0.0005529-0.0026954 0.0005843-0.0005344-0.0027096
           dz -0.0000837 0.0010984 0.0073879 0.0001360 0.0010777 0.0074066
  17 h     dx  0.0014428-0.0001951-0.0006774 0.0010164-0.0001830 0.0002772
           dy  0.0013593-0.0009721 0.0042394-0.0021619 0.0005766-0.0005323
           dz -0.0029098 0.0057986-0.0071463 0.0011493-0.0015425 0.0007650

   ATOM              5 np                          6 o 
                  dx        dy        dz        dx        dy        dz
   5 np    dx  0.0983413
           dy -0.0011072 0.2700303
           dz  0.0043566-0.1844699 0.8744783
   6 o     dx -0.0315347 0.0004791-0.0021526 0.0205297
           dy  0.0005169-0.0686101 0.0926044-0.0002057 0.0555551
           dz -0.0019859 0.0952757-0.4098623 0.0022920-0.0901010 0.3976652
   7 o     dx -0.0204330-0.0110881-0.0047865 0.0021025-0.0001708 0.0028311
           dy -0.0014410-0.0134128 0.0030191-0.0024457-0.0043557 0.0083626
           dz -0.0006016 0.0011765-0.0168959 0.0022166 0.0027702 0.0064032
   8 s     dx  0.0260804 0.0001833 0.0000202-0.0043171-0.0003529-0.0002017
           dy -0.0000742-0.0399601-0.0125418-0.0000430 0.0032890-0.0032756
           dz -0.0000054-0.0031199 0.0112770 0.0000668-0.0006375-0.0023814
   9 c     dx -0.0031278-0.0000200 0.0000044 0.0009163 0.0000482 0.0000099
           dy -0.0000034 0.0004846 0.0017856-0.0000146-0.0003370 0.0003178
           dz -0.0000162-0.0024120-0.0007292-0.0000086 0.0004425-0.0004103
  10 o     dx -0.0315330 0.0004799-0.0021529 0.0098098-0.0002770-0.0001544
           dy  0.0005279-0.0686108 0.0926043-0.0002755 0.0110634 0.0013657
           dz -0.0020019 0.0952753-0.4098614-0.0001583 0.0013645 0.0035384
  11 o     dx -0.0204287 0.0110373 0.0047547 0.0020264 0.0003165-0.0027556
           dy  0.0015616-0.0136669 0.0028980 0.0023581-0.0037580 0.0086598
           dz  0.0004575 0.0012391-0.0168638-0.0020561 0.0024780 0.0061395
  12 h     dx -0.0001964-0.0004190 0.0000255 0.0000548 0.0001152-0.0000976
           dy  0.0007333 0.0006286-0.0004775-0.0001170-0.0001062 0.0001905
           dz -0.0006420-0.0004713-0.0013185 0.0002240 0.0000948 0.0000917
  13 h     dx  0.0006636 0.0000014-0.0000026 0.0000188 0.0000008 0.0000012
           dy  0.0000302-0.0011032 0.0054187 0.0000003 0.0001239-0.0011136
           dz -0.0000086 0.0010116-0.0015338-0.0000026-0.0000593 0.0003506
  14 h     dx -0.0001943 0.0004072-0.0000377 0.0000541-0.0000955 0.0001129
           dy -0.0007389 0.0006255-0.0004725 0.0001184-0.0000999 0.0001898
           dz  0.0006364-0.0004650-0.0013130-0.0002152 0.0000724 0.0000856
  15 h     dx -0.0001945 0.0004075-0.0000380-0.0000118-0.0000321 0.0000044
           dy -0.0007385 0.0006255-0.0004723 0.0003200-0.0006052 0.0002791
           dz  0.0006359-0.0004653-0.0013127 0.0002996-0.0007512 0.0007750
  16 h     dx  0.0006636 0.0000008-0.0000004-0.0010209-0.0000050-0.0000035
           dy  0.0000305-0.0011032 0.0054191-0.0000330 0.0005784-0.0037792
           dz -0.0000084 0.0010116-0.0015340 0.0000065-0.0014448 0.0000885
  17 h     dx -0.0001961-0.0004188 0.0000252-0.0000181 0.0000072-0.0000079
           dy  0.0007337 0.0006285-0.0004778-0.0003183-0.0006003 0.0002823
           dz -0.0006424-0.0004710-0.0013188-0.0003073-0.0007641 0.0007787

   ATOM              7 o                           8 s 
                  dx        dy        dz        dx        dy        dz
   7 o     dx  0.3026618
           dy -0.1538281 0.1900547
           dz  0.0043837-0.0012146 0.0477452
   8 s     dx -0.2471585 0.1571646 0.0212435 0.5202707
           dy  0.1415239-0.1966490-0.0314951 0.0002650 0.4790293
           dz  0.0061428-0.0125617-0.0608353-0.0007677 0.0404183 0.2916800
   9 c     dx -0.0089772 0.0183855-0.0218035-0.0374009 0.0000797-0.0003214
           dy  0.0086385-0.0096325 0.0262617-0.0000312-0.0474648-0.0221265
           dz -0.0039909 0.0032332 0.0092809-0.0002815 0.0246682-0.1454556
  10 o     dx  0.0020180-0.0014090-0.0045489-0.0033201 0.0000839-0.0001093
           dy -0.0009998 0.0051017-0.0054995 0.0002771-0.0013238 0.0035386
           dz -0.0011535-0.0129849-0.0001516 0.0000955 0.0096336-0.0052641
  11 o     dx -0.0331248-0.0136752-0.0007053-0.2478385-0.1418491-0.0050517
           dy  0.0138660 0.0365563 0.0080234-0.1573027-0.1963877-0.0113776
           dz  0.0009278 0.0081384 0.0134707-0.0202357-0.0305904-0.0606952
  12 h     dx  0.0014430-0.0001949-0.0006782-0.0023281-0.0008959 0.0012794
           dy  0.0013601-0.0009713 0.0042396 0.0080543-0.0063691-0.0029553
           dz -0.0029118 0.0057964-0.0071472-0.0189257 0.0103895 0.0033220
  13 h     dx -0.0007141-0.0002216 0.0003748 0.0007082-0.0000481-0.0000792
           dy -0.0005962-0.0005533-0.0026953 0.0000449 0.0086800 0.0122508
           dz -0.0000865 0.0010984 0.0073883-0.0001368-0.0185760-0.0343790
  14 h     dx  0.0010208 0.0001733-0.0002838-0.0022362 0.0009436-0.0012449
           dy  0.0021605 0.0005724-0.0005553-0.0080896-0.0063429-0.0028872
           dz -0.0011609-0.0015501 0.0007958 0.0189739 0.0102955 0.0031788
  15 h     dx  0.0000176-0.0000736-0.0000315 0.0000123 0.0000819-0.0000125
           dy  0.0000341-0.0001415-0.0000273-0.0000553 0.0001029-0.0000078
           dz -0.0000041-0.0000057 0.0000345-0.0000263-0.0000081-0.0000055
  16 h     dx -0.0000757 0.0000297-0.0000053 0.0000966-0.0000004-0.0000001
           dy  0.0000245 0.0003959-0.0000047 0.0000116-0.0003372 0.0000624
           dz -0.0000094-0.0000946 0.0000024-0.0000072 0.0000937-0.0000064
  17 h     dx  0.0000150 0.0001314 0.0000002 0.0000150-0.0000815 0.0000054
           dy -0.0000673-0.0001153-0.0000130 0.0000515 0.0001040-0.0000069
           dz  0.0000094 0.0000851 0.0000069 0.0000365-0.0000079-0.0000108

   ATOM              9 c                          10 o 
                  dx        dy        dz        dx        dy        dz
   9 c     dx  0.5653190
           dy  0.0002221 0.5383968
           dz -0.0005032 0.0791140 0.3655993
  10 o     dx  0.0005200 0.0000229 0.0000283 0.0205286
           dy -0.0000229-0.0005631 0.0011945-0.0002061 0.0555537
           dz -0.0000018-0.0001007 0.0021046 0.0022809-0.0901006 0.3976664
  11 o     dx -0.0089218-0.0084992 0.0041131 0.0021714 0.0008713 0.0010317
           dy -0.0184146-0.0096312 0.0032963 0.0014781 0.0046486-0.0132006
           dz  0.0219615 0.0262807 0.0091433 0.0044291-0.0053030 0.0000471
  12 h     dx -0.2310216 0.1266448-0.0223970-0.0000178 0.0000078-0.0000082
           dy  0.1273656-0.1305302 0.0131870-0.0003180-0.0006003 0.0002822
           dz -0.0249785 0.0153960-0.0442647-0.0003071-0.0007640 0.0007781
  13 h     dx -0.0457705-0.0008300-0.0006479-0.0010209-0.0000048-0.0000020
           dy -0.0008033-0.2108321-0.1373153-0.0000336 0.0005785-0.0037789
           dz -0.0006548-0.1429272-0.1508946 0.0000068-0.0014446 0.0000885
  14 h     dx -0.2317439-0.1261354 0.0237092-0.0000120-0.0000315 0.0000041
           dy -0.1268646-0.1294892 0.0139376 0.0003203-0.0006050 0.0002791
           dz  0.0263084 0.0161370-0.0445954 0.0002998-0.0007513 0.0007754
  15 h     dx -0.0000021-0.0000074 0.0000167 0.0000542-0.0000954 0.0001129
           dy  0.0000055-0.0000090 0.0000152 0.0001184-0.0000999 0.0001896
           dz  0.0000012 0.0000007-0.0000044-0.0002152 0.0000726 0.0000855
  16 h     dx -0.0000092 0.0000001 0.0000003 0.0000188 0.0000009 0.0000006
           dy -0.0000014 0.0000282-0.0000657 0.0000000 0.0001238-0.0011137
           dz  0.0000006-0.0000080 0.0000173-0.0000027-0.0000593 0.0003506
  17 h     dx -0.0000026 0.0000086-0.0000161 0.0000548 0.0001152-0.0000976
           dy -0.0000051-0.0000095 0.0000151-0.0001170-0.0001063 0.0001907
           dz -0.0000023 0.0000018-0.0000039 0.0002240 0.0000946 0.0000918

   ATOM             11 o                          12 h 
                  dx        dy        dz        dx        dy        dz
  11 o     dx  0.3032008
           dy  0.1538381 0.1895123
           dz -0.0057161-0.0019798 0.0476155
  12 h     dx  0.0010175-0.0001823 0.0002776 0.2473995
           dy -0.0021615 0.0005749-0.0005326-0.1382588 0.1364799
           dz  0.0011504-0.0015417 0.0007651 0.0250432-0.0164790 0.0442899
  13 h     dx -0.0007188 0.0002313-0.0003392 0.0011622 0.0183864 0.0176884
           dy  0.0005848-0.0005335-0.0027100-0.0020376-0.0099843-0.0091265
           dz  0.0001332 0.0010773 0.0074063 0.0000497 0.0058200 0.0040399
  14 h     dx  0.0014570 0.0002268 0.0006369-0.0175549-0.0149907 0.0036143
           dy -0.0013483-0.0009826 0.0042526 0.0150881 0.0110352-0.0033580
           dz  0.0028872 0.0058096-0.0071619-0.0035135-0.0032414-0.0005886
  15 h     dx  0.0000152-0.0001233-0.0000043 0.0000028-0.0000042 0.0000008
           dy  0.0000673-0.0001106-0.0000145 0.0000042-0.0000066 0.0000015
           dz -0.0000108 0.0000710 0.0000137-0.0000010 0.0000015 0.0000025
  16 h     dx -0.0000763-0.0000283 0.0000062-0.0000016 0.0000034-0.0000021
           dy -0.0000254 0.0003767 0.0000038-0.0000100 0.0000131-0.0000072
           dz  0.0000109-0.0000826-0.0000022 0.0000021-0.0000031 0.0000019
  17 h     dx  0.0000178 0.0000772 0.0000296-0.0000048 0.0000026-0.0000012
           dy -0.0000346-0.0001414-0.0000273 0.0000026-0.0000016 0.0000003
           dz  0.0000035-0.0000098 0.0000367-0.0000012 0.0000003-0.0000012

   ATOM             13 h                          14 h 
                  dx        dy        dz        dx        dy        dz
  13 h     dx  0.0447605
           dy  0.0008690 0.2230745
           dz  0.0007102 0.1481491 0.1633642
  14 h     dx  0.0009760 0.0019324-0.0000055 0.2481939
           dy -0.0183854-0.0099121 0.0059445 0.1376896 0.1353520
           dz -0.0177046-0.0090646 0.0041601-0.0264738-0.0172950 0.0446218
  15 h     dx -0.0000015 0.0000094-0.0000017-0.0000046-0.0000025 0.0000009
           dy -0.0000034 0.0000128-0.0000029-0.0000025-0.0000014 0.0000002
           dz  0.0000022-0.0000067 0.0000015 0.0000009 0.0000002-0.0000007
  16 h     dx  0.0000026-0.0000000-0.0000000-0.0000015-0.0000034 0.0000022
           dy -0.0000000-0.0000277 0.0000037 0.0000094 0.0000128-0.0000067
           dz -0.0000000 0.0000037-0.0000049-0.0000017-0.0000029 0.0000015
  17 h     dx -0.0000016-0.0000100 0.0000021 0.0000028 0.0000042-0.0000011
           dy  0.0000034 0.0000131-0.0000031-0.0000042-0.0000066 0.0000015
           dz -0.0000021-0.0000072 0.0000019 0.0000008 0.0000015 0.0000025

   ATOM             15 h                          16 h 
                  dx        dy        dz        dx        dy        dz
  15 h     dx  0.2483746
           dy  0.1376052 0.1351575
           dz -0.0265431-0.0173146 0.0446366
  16 h     dx  0.0009598-0.0183919-0.0177094 0.0447624
           dy  0.0019225-0.0099002-0.0090519 0.0010345 0.2230826
           dz -0.0000005 0.0059498 0.0041647 0.0008445 0.1481463 0.1633546
  17 h     dx -0.0175549 0.0151073-0.0035119 0.0011784-0.0020477 0.0000546
           dy -0.0149713 0.0110349-0.0032354 0.0183808-0.0099962 0.0058157
           dz  0.0036167-0.0033648-0.0005884 0.0176823-0.0091380 0.0040355

   ATOM             17 h 
                  dx        dy        dz
  17 h     dx  0.2472170
           dy -0.1383398 0.1366734
           dz  0.0249831-0.0164638 0.0442780
 

   *** projected hessian written onto $hessian (projected), file=<hessian> ***

 dipole moment in principle axis system (a.u.) :
     0.0001840404    -0.0000324667    -0.0000367828
 norm :  1.904676556474707E-004

 rotational constants b for rotations around axis of inertia
 and optical intensities for (1 <-- 0) transition

   b   :     0.0110582212     0.0621621326     0.0115990028   (cm**(-1))
   b   :         331.5171        1863.5739         347.7294     (MHz)
  int. :     0.0000000339     0.0000000011     0.0000000014     (a.u.)

   x   :     0.9999840062     0.0004450306     0.0056382039
   y   :    -0.0004759455     0.9999848552     0.0054829517
   z   :    -0.0056356785    -0.0054855474     0.9999690735

   ***  normal modes written onto $vibrational normal modes, file=<vib_normal_modes>  ***

 keyword $vibrational reduced masses missing in file <control>


   ***  vibrational spectroscopic data written onto$vibrational spectrum   
        file=<vibspectrum>  ***

          ---------------------------------------------------
          NORMAL MODES and VIBRATIONAL FREQUENCIES (cm**(-1))
          ---------------------------------------------------

 imaginary wave numbers indicate a negative curvature of the energy surface.
 zero frequency modes have no physical meaning except being generators of
 translations and rotations. each vibrational normal mode - given in terms of
 cartesian displacement vectors of all atoms - has been normalized to unity.
 to obtain mass-weigthed normal coordinates in a.u. divide the tabulated
 modes by sqrt(reduced mass * 1822.88853).
 band intensities or cross sections refer to independent non-degenerate normal
 modes, that is, the intensities of degenerate modes have yet to be added.
 dDIP/dQ is the normal mode derivative of the dipole moment.


       mode               1        2        3        4        5        6

     frequency           0.00     0.00     0.00     0.00     0.00     0.00

     symmetry                                                             

        IR                -        -        -        -        -        - 
|dDIP/dQ|   (a.u.)     0.0000   0.0000   0.0000   0.0000   0.0000   0.0000
intensity (km/mol)       0.00     0.00     0.00     0.00     0.00     0.00
intensity (  %   )       0.00     0.00     0.00     0.00     0.00     0.00
 
       RAMAN              -        -        -        -        -        - 
 
  1   c           x   0.09349  0.17419 -0.23352  0.21296  0.26857  0.02985
                  y  -0.07627  0.03532  0.01670 -0.18813  0.08471  0.06464
                  z  -0.29289  0.14244 -0.01800  0.00557  0.02070 -0.04265
  2   s           x  -0.03015 -0.10583 -0.21290  0.17833  0.16154  0.14389
                  y   0.03217  0.00048 -0.02167 -0.19987  0.03600  0.09425
                  z  -0.24752  0.12863 -0.03400  0.00077  0.00071 -0.03062
  3   o           x  -0.02827 -0.08362 -0.14994  0.15750  0.11743  0.15944
                  y   0.02661  0.01976  0.06291 -0.22821 -0.02461  0.11821
                  z  -0.09868  0.32234 -0.03553  0.00786  0.02686 -0.08774
  4   o           x  -0.02882 -0.08498 -0.15031  0.15750  0.11729  0.15981
                  y   0.03180 -0.01693 -0.10431 -0.17083  0.09941  0.06862
                  z  -0.27836 -0.10358 -0.07462 -0.01905 -0.07842  0.05884
  5   np          x  -0.00014  0.02517  0.00417  0.11178  0.02701  0.17683
                  y   0.00035  0.01066 -0.01060 -0.19636  0.05045  0.08550
                  z  -0.04853  0.06379 -0.10507 -0.02068 -0.08860  0.02388
  6   o           x   0.12658  0.31755  0.00208  0.14085  0.12294  0.06515
                  y  -0.11125  0.04645  0.02856 -0.18416  0.10082  0.05493
                  z  -0.07735  0.07133 -0.09517 -0.01775 -0.07638  0.01674
  7   o           x   0.02802  0.13403  0.15835  0.06605 -0.06344  0.19423
                  y  -0.02594  0.00159 -0.08402 -0.16453  0.12545  0.05281
                  z   0.00176 -0.19455 -0.17461 -0.04922 -0.20403  0.13544
  8   s           x   0.02988  0.15617  0.22125  0.04523 -0.10751  0.20977
                  y  -0.03149  0.02087  0.00059 -0.19289  0.06480  0.07679
                  z   0.15060 -0.00072 -0.17610 -0.04211 -0.17783  0.07826
  9   c           x  -0.09376 -0.12384  0.24187  0.01060 -0.21454  0.32381
                  y   0.07695 -0.01396 -0.03777 -0.20463  0.01608  0.10639
                  z   0.19597 -0.01451 -0.19210 -0.04691 -0.19782  0.09029
 10   o           x  -0.12686 -0.26721  0.00627  0.08271 -0.06891  0.28852
                  y   0.11195 -0.02513 -0.04977 -0.20855  0.00008  0.11607
                  z  -0.01971  0.05626 -0.11496 -0.02361 -0.10082  0.03102
 11   o           x   0.02852  0.13525  0.15859  0.06608 -0.06324  0.19385
                  y  -0.03109  0.03827  0.08318 -0.22192  0.00141  0.10241
                  z   0.18133  0.23140 -0.13547 -0.02229 -0.09870 -0.01118
 12   h           x  -0.10322 -0.13444  0.28153 -0.00490 -0.25025  0.34293
                  y   0.08259 -0.00301  0.02049 -0.22635 -0.03247  0.12651
                  z   0.30086  0.12801 -0.19189 -0.04133 -0.17708  0.04760
 13   h           x  -0.14234 -0.25557  0.17344  0.02282 -0.20128  0.34773
                  y   0.12145 -0.02822 -0.05335 -0.20951 -0.00403  0.11859
                  z   0.14153  0.00381 -0.17253 -0.04098 -0.17316  0.07515
 14   h           x  -0.10365 -0.13554  0.28118 -0.00488 -0.25032  0.34321
                  y   0.08641 -0.02979 -0.10151 -0.18449  0.05798  0.09035
                  z   0.16971 -0.18268 -0.22039 -0.06096 -0.25385  0.15452
 15   h           x   0.10340  0.18594 -0.27279  0.22843  0.30433  0.01045
                  y  -0.08574  0.05116  0.08048 -0.20828  0.04280  0.08070
                  z  -0.26656  0.31066  0.01028  0.01962  0.07673 -0.10689
 16   h           x   0.14207  0.30592 -0.16509  0.20073  0.25530  0.00594
                  y  -0.12076  0.04957  0.03223 -0.18324  0.10486  0.05243
                  z  -0.23850  0.12399 -0.03758 -0.00037 -0.00399 -0.02746
 17   h           x   0.10293  0.18475 -0.27323  0.22847  0.30430  0.01073
                  y  -0.08189  0.02437 -0.04153 -0.16643  0.13324  0.04454
                  z  -0.39778  0.00000 -0.01819  0.00000  0.00000  0.00000

reduced mass(g/mol)     8.828   11.147   12.337   22.897   10.263   18.774


       mode               7        8        9       10       11       12

     frequency          24.32    47.90    81.79    97.02   132.91   157.61

     symmetry            a        a        a        a        a        a   

        IR               YES      YES      YES      YES      YES      YES
|dDIP/dQ|   (a.u.)     0.0007   0.0010   0.0014   0.0000   0.0015   0.0000
intensity (km/mol)       0.88     1.88     3.39     0.00     3.92     0.00
intensity (  %   )       0.23     0.50     0.90     0.00     1.04     0.00
 
       RAMAN             YES      YES      YES      YES      YES      YES
 
  1   c           x  -0.26066  0.00739 -0.25063  0.00132  0.00036  0.20541
                  y   0.00525  0.17747  0.00201 -0.26863  0.26942  0.02282
                  z   0.00927  0.24808  0.00237 -0.10976  0.04168 -0.00984
  2   s           x  -0.24224  0.00428  0.06219 -0.00068 -0.00084 -0.06103
                  y  -0.00127 -0.03861 -0.00026 -0.03151  0.02164  0.02637
                  z   0.00652  0.15737  0.00067 -0.01113 -0.05958 -0.00629
  3   o           x  -0.13107  0.00267  0.07405 -0.00083 -0.00216 -0.07691
                  y   0.14578 -0.03210  0.03004 -0.04310  0.02943 -0.00403
                  z   0.05391  0.03080 -0.18817  0.12148 -0.17089  0.09978
  4   o           x  -0.13185  0.00089  0.07489 -0.00073  0.00088 -0.07273
                  y  -0.14815 -0.02633 -0.03018 -0.04121  0.02790  0.05084
                  z  -0.04927  0.02994  0.18755  0.11963 -0.17276 -0.09455
  5   np          x   0.11441 -0.00225  0.00027  0.00001  0.00030 -0.00000
                  y  -0.00002 -0.00614 -0.00026 -0.00000 -0.04228  0.00002
                  z  -0.00312 -0.07316 -0.00042  0.00001  0.04886 -0.00002
  6   o           x   0.14649 -0.00262 -0.02852 -0.00342  0.00033 -0.37027
                  y   0.00036  0.00737  0.00058  0.12117 -0.04961  0.04444
                  z  -0.00334 -0.06982  0.00001  0.02750  0.05815  0.01530
  7   o           x  -0.13118  0.00263  0.07408  0.00087 -0.00208  0.07691
                  y   0.14564 -0.03211  0.03010  0.04312  0.02940  0.00399
                  z   0.05390  0.03099 -0.18810 -0.12154 -0.17097 -0.09967
  8   s           x  -0.24224  0.00422  0.06219  0.00069 -0.00078  0.06104
                  y  -0.00149 -0.03861 -0.00021  0.03151  0.02161 -0.02640
                  z   0.00651  0.15737  0.00073  0.01111 -0.05957  0.00636
  9   c           x  -0.26067  0.00745 -0.25064 -0.00157 -0.00002 -0.20538
                  y   0.00507  0.17750  0.00180  0.26867  0.26933 -0.02321
                  z   0.00928  0.24810  0.00234  0.10976  0.04167  0.00978
 10   o           x   0.14648 -0.00234 -0.02850  0.00343  0.00051  0.37028
                  y   0.00035  0.00737  0.00065 -0.12118 -0.04963 -0.04432
                  z  -0.00334 -0.06982  0.00002 -0.02749  0.05814 -0.01532
 11   o           x  -0.13173  0.00085  0.07486  0.00077  0.00096  0.07270
                  y  -0.14828 -0.02631 -0.03013  0.04121  0.02787 -0.05082
                  z  -0.04928  0.02972  0.18764 -0.11964 -0.17261  0.09467
 12   h           x  -0.33052  0.00905 -0.30000 -0.00278  0.00001 -0.28890
                  y  -0.10348  0.19334 -0.04018  0.28218  0.28705 -0.11902
                  z  -0.02277  0.32122  0.16614  0.19262  0.13677  0.15499
 13   h           x  -0.13222  0.00524 -0.33414 -0.00151  0.00070 -0.22593
                  y   0.00741  0.26348  0.00254  0.36413  0.37623 -0.02371
                  z   0.00562  0.14166  0.00193 -0.00863 -0.08983  0.01026
 14   h           x  -0.32981  0.00987 -0.30091 -0.00188 -0.00046 -0.28910
                  y   0.11471  0.18838  0.04418  0.28482  0.28879  0.07196
                  z   0.04623  0.32204 -0.16012  0.19000  0.13723 -0.13637
 15   h           x  -0.32972  0.00983 -0.30091  0.00155  0.00005  0.28913
                  y   0.11493  0.18831  0.04442 -0.28470  0.28877 -0.07247
                  z   0.04622  0.32183 -0.16006 -0.18999  0.13737  0.13622
 16   h           x  -0.13221  0.00504 -0.33413  0.00130  0.00108  0.22591
                  y   0.00748  0.26344  0.00283 -0.36407  0.37635  0.02322
                  z   0.00561  0.14166  0.00196  0.00861 -0.08985 -0.01022
 17   h           x  -0.33059  0.00902 -0.29997  0.00246  0.00052  0.28899
                  y  -0.10325  0.19335 -0.03992 -0.28222  0.28727  0.11860
                  z  -0.02278  0.32137  0.16619 -0.19260  0.13670 -0.15514

reduced mass(g/mol)    12.380    6.218    5.159    4.373    5.873    7.384


       mode              13       14       15       16       17       18

     frequency         175.26   190.23   196.87   204.76   205.79   234.65

     symmetry            a        a        a        a        a        a   

        IR               YES      YES      YES      YES      YES      YES
|dDIP/dQ|   (a.u.)     0.0000   0.0065   0.0024   0.0000   0.0000   0.0013
intensity (km/mol)       0.00    74.88     9.86     0.00     0.00     3.14
intensity (  %   )       0.00    19.81     2.61     0.00     0.00     0.83
 
       RAMAN             YES      YES      YES      YES      YES      YES
 
  1   c           x   0.04386  0.00002  0.00320 -0.00078 -0.01110  0.01573
                  y  -0.13145  0.05664  0.00009  0.03232  0.05674  0.00015
                  z   0.11827 -0.08419  0.00020 -0.00056 -0.00246  0.00010
  2   s           x  -0.01310 -0.00001 -0.01057 -0.00548  0.00848  0.00315
                  y  -0.31533  0.30358 -0.00083 -0.02386 -0.03805 -0.00021
                  z   0.02297  0.04250 -0.00019 -0.02372 -0.04140 -0.00011
  3   o           x   0.01699 -0.02867 -0.06752 -0.04132  0.04393 -0.05821
                  y  -0.27386  0.27656 -0.08572 -0.07542  0.01038 -0.09026
                  z  -0.10812  0.18414 -0.04447 -0.06556 -0.03947 -0.05493
  4   o           x  -0.04137  0.02563 -0.06720 -0.04462  0.03824 -0.05774
                  y  -0.27585  0.28216  0.08440  0.03116 -0.08202  0.09013
                  z  -0.14774  0.18668  0.04372 -0.00730 -0.08429  0.05484
  5   np          x  -0.00007  0.00046  0.01847  0.00001  0.00001  0.00643
                  y   0.00000 -0.12734  0.00029  0.00004 -0.00003  0.00007
                  z   0.00000 -0.03982  0.00013  0.00001 -0.00001  0.00006
  6   o           x  -0.07647 -0.00070  0.01455  0.03193 -0.01026  0.04755
                  y  -0.23372 -0.26760 -0.00014  0.11619  0.20403 -0.00029
                  z  -0.08269 -0.07657  0.00002  0.02582  0.04601 -0.00029
  7   o           x  -0.01647 -0.02813 -0.06751  0.04121 -0.04399 -0.05817
                  y   0.27479  0.27759 -0.08561  0.07516 -0.01033 -0.09024
                  z   0.10857  0.18468 -0.04451  0.06540  0.03952 -0.05488
  8   s           x   0.01297 -0.00012 -0.01056  0.00544 -0.00853  0.00315
                  y   0.31531  0.30368 -0.00057  0.02363  0.03820 -0.00009
                  z  -0.02297  0.04255 -0.00027  0.02369  0.04143 -0.00010
  9   c           x  -0.04387 -0.00014  0.00316  0.00081  0.01114  0.01574
                  y   0.13143  0.05659  0.00034 -0.03238 -0.05670  0.00017
                  z  -0.11828 -0.08421  0.00008  0.00061  0.00243  0.00006
 10   o           x   0.07671 -0.00084  0.01465 -0.03190  0.01026  0.04756
                  y   0.23375 -0.26780  0.00042 -0.11598 -0.20418 -0.00035
                  z   0.08271 -0.07661  0.00018 -0.02577 -0.04605 -0.00029
 11   o           x   0.04186  0.02618 -0.06727  0.04454 -0.03833 -0.05781
                  y   0.27488  0.28129  0.08461 -0.03124  0.08217  0.09020
                  z   0.14723  0.18635  0.04377  0.00723  0.08440  0.05494
 12   h           x  -0.05539  0.00228  0.20901 -0.20097  0.20280 -0.18337
                  y   0.11091  0.04122  0.32541 -0.35730  0.23506 -0.31769
                  z  -0.14163 -0.19205  0.11809 -0.14798  0.05361 -0.12904
 13   h           x  -0.05996 -0.00573 -0.38236  0.38173 -0.34074  0.40709
                  y   0.06824 -0.05299  0.00164 -0.06193 -0.10510 -0.00045
                  z  -0.03853  0.04856  0.00079  0.03399  0.06281 -0.00150
 14   h           x  -0.05868  0.00312  0.20684 -0.19779  0.20271 -0.18118
                  y   0.13524  0.03102 -0.32533  0.28058 -0.37113  0.31887
                  z  -0.21410 -0.19513 -0.11837  0.09256 -0.14926  0.13084
 15   h           x   0.05758  0.00480  0.20650  0.19795 -0.20202 -0.18088
                  y  -0.13348  0.02860 -0.32553 -0.28137  0.37068  0.31892
                  z   0.21482 -0.19584 -0.11819 -0.09268  0.14897  0.13092
 16   h           x   0.06214 -0.00845 -0.38205 -0.38243  0.34006  0.40699
                  y  -0.06827 -0.05286  0.00166  0.06225  0.10482 -0.00071
                  z   0.03849  0.04851  0.00100 -0.03396 -0.06284 -0.00161
 17   h           x   0.05427  0.00399  0.20918  0.20166 -0.20258 -0.18359
                  y  -0.11272  0.04374  0.32481  0.35774 -0.23428 -0.31749
                  z   0.14093 -0.19117  0.11801  0.14830 -0.05342 -0.12887

reduced mass(g/mol)    15.571   20.388    1.925    1.997    3.166    1.962


       mode              19       20       21       22       23       24

     frequency         239.80   244.23   293.68   308.74   313.85   400.38

     symmetry            a        a        a        a        a        a   

        IR               YES      YES      YES      YES      YES      YES
|dDIP/dQ|   (a.u.)     0.0036   0.0000   0.0074   0.0008   0.0000   0.0048
intensity (km/mol)      22.59     0.00    97.53     1.27     0.00    41.25
intensity (  %   )       5.98     0.00    25.80     0.34     0.00    10.91
 
       RAMAN             YES      YES      YES      YES      YES      YES
 
  1   c           x  -0.04841 -0.04043 -0.00514  0.16233 -0.15583 -0.00013
                  y   0.00005  0.00090 -0.03184 -0.00027 -0.00181  0.15519
                  z  -0.00008 -0.00055  0.04624 -0.00020  0.00169 -0.09766
  2   s           x   0.03577  0.00242  0.00219 -0.07244  0.07312 -0.00028
                  y   0.00032  0.00034 -0.04599 -0.00017 -0.00069 -0.01787
                  z  -0.00008 -0.00066  0.01593  0.00027  0.00106 -0.09959
  3   o           x   0.03094  0.09412  0.01066 -0.00044 -0.01490 -0.04846
                  y   0.01968  0.13185 -0.04142  0.10045 -0.12018 -0.08518
                  z   0.02112  0.08742 -0.04581 -0.15118  0.15145  0.15295
  4   o           x   0.03061  0.09353 -0.00898 -0.00003 -0.01614  0.04951
                  y  -0.01899 -0.13195 -0.03777 -0.10078  0.12026 -0.08547
                  z  -0.02090 -0.08863 -0.05332  0.15062 -0.15195  0.15255
  5   np          x  -0.09245 -0.00001  0.00030 -0.00701  0.00000 -0.00004
                  y  -0.00001 -0.00001  0.11698  0.00065  0.00002  0.00767
                  z   0.00050 -0.00001  0.02622  0.00018  0.00000 -0.00117
  6   o           x   0.60025 -0.02898 -0.00290  0.02256 -0.04106 -0.00012
                  y  -0.00094  0.00377 -0.66441 -0.00379 -0.00474 -0.01755
                  z  -0.00365  0.00113 -0.16906 -0.00108 -0.00069 -0.01369
  7   o           x   0.03101 -0.09402  0.01079 -0.00046  0.01487 -0.04843
                  y   0.01966 -0.13177 -0.04141  0.10044  0.12017 -0.08521
                  z   0.02107 -0.08732 -0.04555 -0.15119 -0.15147  0.15298
  8   s           x   0.03576 -0.00241  0.00230 -0.07244 -0.07312 -0.00024
                  y   0.00016 -0.00019 -0.04599 -0.00026  0.00060 -0.01787
                  z  -0.00005  0.00068  0.01592  0.00026 -0.00108 -0.09962
  9   c           x  -0.04839  0.04042 -0.00536  0.16234  0.15583 -0.00023
                  y  -0.00006 -0.00085 -0.03184 -0.00016  0.00191  0.15522
                  z  -0.00000  0.00051  0.04623 -0.00015 -0.00164 -0.09767
 10   o           x   0.60019  0.02906 -0.00293  0.02256  0.04104 -0.00010
                  y  -0.00102 -0.00397 -0.66440 -0.00380  0.00459 -0.01756
                  z  -0.00366 -0.00118 -0.16906 -0.00108  0.00066 -0.01369
 11   o           x   0.03065 -0.09358 -0.00885 -0.00001  0.01617  0.04955
                  y  -0.01919  0.13194 -0.03778 -0.10081 -0.12027 -0.08548
                  z  -0.02106  0.08869 -0.05358  0.15061  0.15191  0.15258
 12   h           x   0.02883 -0.13755 -0.01060  0.28445  0.28258  0.01196
                  y   0.13549 -0.29134 -0.04170  0.13133  0.14109  0.21303
                  z   0.11558 -0.14763  0.04323 -0.25540 -0.25248  0.10236
 13   h           x  -0.25126  0.42340 -0.00863  0.27328  0.25906 -0.00058
                  y   0.00019 -0.00208 -0.03456  0.00000  0.00356  0.37766
                  z   0.00091 -0.00029  0.04503 -0.00103 -0.00421 -0.36717
 14   h           x   0.02748 -0.13530 -0.00778  0.28564  0.28354 -0.01145
                  y  -0.13595  0.29006 -0.03356 -0.13211 -0.13686  0.21384
                  z  -0.11635  0.14889  0.02765  0.25488  0.25191  0.10173
 15   h           x   0.02717  0.13511 -0.00748  0.28560 -0.28352 -0.01129
                  y  -0.13563 -0.29025 -0.03360 -0.13229  0.13705  0.21387
                  z  -0.11638 -0.14906  0.02802  0.25476 -0.25182  0.10174
 16   h           x  -0.25099 -0.42354 -0.00813  0.27327 -0.25907 -0.00032
                  y   0.00044  0.00236 -0.03455 -0.00021 -0.00337  0.37756
                  z   0.00090  0.00040  0.04504 -0.00109  0.00426 -0.36710
 17   h           x   0.02878  0.13785 -0.01031  0.28446 -0.28262  0.01211
                  y   0.13530  0.29137 -0.04164  0.13112 -0.14089  0.21293
                  z   0.11539  0.14753  0.04287 -0.25550  0.25261  0.10230

reduced mass(g/mol)    14.065    3.105   18.959    3.914    4.187    4.393


       mode              25       26       27       28       29       30

     frequency         404.38   530.00   541.70   665.18   665.53   830.08

     symmetry            a        a        a        a        a        a   

        IR               YES      YES      YES      YES      YES      YES
|dDIP/dQ|   (a.u.)     0.0000   0.0085   0.0000   0.0063   0.0000   0.0000
intensity (km/mol)       0.00   129.56     0.00    71.32     0.00     0.00
intensity (  %   )       0.00    34.28     0.00    18.87     0.00     0.00
 
       RAMAN             YES      YES      YES      YES      YES      YES
 
  1   c           x   0.00032 -0.00006 -0.00003 -0.00053  0.00052  0.00027
                  y  -0.15268  0.00285  0.01518  0.13436 -0.13399  0.02470
                  z   0.09650 -0.01196 -0.02236 -0.26386  0.26454 -0.01775
  2   s           x   0.00005  0.00042  0.00048  0.00036 -0.00037  0.00023
                  y   0.02530  0.15700  0.14638 -0.05541  0.05581  0.02330
                  z   0.09863  0.07020  0.06843  0.14040 -0.14071  0.00503
  3   o           x   0.04266 -0.28395 -0.28934  0.03374 -0.03745  0.07840
                  y   0.08309 -0.16535 -0.17443 -0.00483  0.00269  0.00067
                  z  -0.15420 -0.06855 -0.06465 -0.01491  0.01452  0.01029
  4   o           x  -0.04267  0.28303  0.28797 -0.03391  0.03772 -0.07895
                  y   0.08178 -0.16599 -0.17464 -0.00471  0.00252  0.00075
                  z  -0.15202 -0.06967 -0.06643 -0.01465  0.01429  0.01003
  5   np          x  -0.00001 -0.00000  0.00001 -0.00000 -0.00000 -0.00000
                  y  -0.00000  0.00371  0.00000  0.00203 -0.00000 -0.00000
                  z  -0.00000  0.00213  0.00000 -0.00086  0.00000  0.00000
  6   o           x   0.00124  0.00015 -0.00032  0.00005 -0.00005 -0.00407
                  y   0.04476  0.00855  0.01822 -0.00461  0.00076  0.16396
                  z   0.01686  0.00119 -0.04984  0.01129 -0.01812 -0.67248
  7   o           x  -0.04261 -0.28380  0.28915  0.03379  0.03741 -0.07836
                  y  -0.08309 -0.16552  0.17458 -0.00481 -0.00266 -0.00073
                  z   0.15417 -0.06862  0.06471 -0.01492 -0.01449 -0.01030
  8   s           x  -0.00001  0.00028 -0.00035  0.00036  0.00038 -0.00024
                  y  -0.02529  0.15701 -0.14636 -0.05548 -0.05575 -0.02330
                  z  -0.09861  0.07021 -0.06843  0.14057  0.14053 -0.00503
  9   c           x  -0.00042 -0.00006  0.00004 -0.00056 -0.00055 -0.00028
                  y   0.15265  0.00286 -0.01518  0.13454  0.13383 -0.02470
                  z  -0.09648 -0.01196  0.02236 -0.26419 -0.26420  0.01775
 10   o           x  -0.00121  0.00015  0.00032  0.00004  0.00005  0.00405
                  y  -0.04475  0.00855 -0.01822 -0.00461 -0.00075 -0.16396
                  z  -0.01685  0.00119  0.04984  0.01132  0.01810  0.67247
 11   o           x   0.04269  0.28325 -0.28811 -0.03396 -0.03767  0.07900
                  y  -0.08175 -0.16586  0.17445 -0.00474 -0.00254 -0.00068
                  z   0.15199 -0.06962  0.06636 -0.01468 -0.01428 -0.01002
 12   h           x   0.01135 -0.00898  0.00936 -0.01576 -0.01557  0.00592
                  y   0.21058 -0.04947  0.03592  0.08367  0.08333 -0.01082
                  z   0.10669 -0.22538  0.22982 -0.42803 -0.42685  0.03518
 13   h           x  -0.00134  0.00064 -0.00048 -0.00006 -0.00008  0.00038
                  y   0.37737 -0.24087  0.22821 -0.02006 -0.01816  0.03627
                  z  -0.36917  0.28389 -0.27161 -0.07579 -0.07863 -0.05044
 14   h           x  -0.01189  0.00749 -0.00777  0.01317  0.01300 -0.00538
                  y   0.21205 -0.04979  0.03605  0.08388  0.08355 -0.01170
                  z   0.10434 -0.22479  0.22973 -0.42797 -0.42681  0.03723
 15   h           x   0.01173  0.00740  0.00769  0.01311 -0.01298  0.00539
                  y  -0.21216 -0.04981 -0.03608  0.08374 -0.08363  0.01166
                  z  -0.10439 -0.22481 -0.22979 -0.42743  0.42737 -0.03719
 16   h           x   0.00109  0.00051  0.00035 -0.00010  0.00012 -0.00038
                  y  -0.37744 -0.24084 -0.22823 -0.02004  0.01819 -0.03627
                  z   0.36926  0.28387  0.27165 -0.07569  0.07873  0.05044
 17   h           x  -0.01151 -0.00907 -0.00944 -0.01578  0.01563 -0.00591
                  y  -0.21057 -0.04947 -0.03591  0.08357 -0.08345  0.01086
                  z  -0.10667 -0.22531 -0.22980 -0.42748  0.42739 -0.03522

reduced mass(g/mol)     4.360    9.607    9.810    4.445    4.469   15.806


       mode              31       32       33       34       35       36

     frequency         890.89   916.28   916.50   936.87   938.18   998.26

     symmetry            a        a        a        a        a        a   

        IR               YES      YES      YES      YES      YES      YES
|dDIP/dQ|   (a.u.)     0.0140   0.0025   0.0000   0.0000   0.0119   0.0146
intensity (km/mol)     348.85    11.17     0.00     0.00   249.73   377.97
intensity (  %   )      92.30     2.96     0.00     0.00    66.07   100.00
 
       RAMAN             YES      YES      YES      YES      YES      YES
 
  1   c           x  -0.00006  0.10657 -0.10665  0.00073  0.00070 -0.00038
                  y  -0.06813 -0.00031  0.00038  0.09223  0.09107  0.08058
                  z  -0.01647 -0.00035  0.00039  0.05825  0.05898  0.06437
  2   s           x   0.00022  0.00158 -0.00100 -0.00031 -0.00027  0.00124
                  y  -0.01980 -0.00018  0.00014  0.02678  0.03201 -0.14225
                  z   0.01609  0.00001 -0.00004 -0.04128 -0.04131 -0.04716
  3   o           x  -0.05029 -0.03031  0.02940  0.06279  0.06934 -0.13421
                  y   0.03280  0.03038 -0.03044 -0.05041 -0.05396  0.11967
                  z  -0.00281 -0.01469  0.01475  0.02189  0.02306  0.02808
  4   o           x   0.04976 -0.02981  0.02893 -0.06253 -0.06916  0.13175
                  y   0.03237 -0.02989  0.02993 -0.05017 -0.05371  0.11743
                  z  -0.00311  0.01483 -0.01484  0.02238  0.02356  0.02702
  5   np          x  -0.00039 -0.00001 -0.00000  0.00000 -0.00005  0.00003
                  y   0.01959 -0.00000  0.00000 -0.00000  0.00180  0.00133
                  z  -0.07389  0.00003 -0.00000  0.00000 -0.00813  0.00090
  6   o           x   0.00305  0.00001 -0.00010  0.00011  0.00033 -0.00006
                  y  -0.13274  0.00005 -0.00005 -0.00780 -0.01454  0.00031
                  z   0.53386 -0.00019 -0.00007  0.02094  0.05643 -0.00577
  7   o           x  -0.05028 -0.03034 -0.02937 -0.06289  0.06930 -0.13408
                  y   0.03274  0.03037  0.03037  0.05043 -0.05385  0.11941
                  z  -0.00281 -0.01470 -0.01473 -0.02194  0.02306  0.02804
  8   s           x   0.00020  0.00158  0.00100  0.00031 -0.00026  0.00111
                  y  -0.01980 -0.00016 -0.00013 -0.02681  0.03198 -0.14225
                  z   0.01608 -0.00000  0.00003  0.04132 -0.04126 -0.04716
  9   c           x  -0.00006  0.10669  0.10653 -0.00060  0.00056 -0.00038
                  y  -0.06813 -0.00020 -0.00028 -0.09233  0.09097  0.08058
                  z  -0.01647 -0.00030 -0.00034 -0.05832  0.05891  0.06437
 10   o           x   0.00304  0.00001  0.00010 -0.00011  0.00033 -0.00006
                  y  -0.13274  0.00004  0.00004  0.00782 -0.01453  0.00031
                  z   0.53387 -0.00018  0.00013 -0.02100  0.05641 -0.00577
 11   o           x   0.04977 -0.02985 -0.02890  0.06257 -0.06906  0.13190
                  y   0.03243 -0.02997 -0.02994  0.05026 -0.05371  0.11769
                  z  -0.00310  0.01485  0.01482 -0.02238  0.02351  0.02707
 12   h           x   0.02946 -0.09388 -0.09381  0.05079 -0.05035 -0.04992
                  y   0.01218 -0.20528 -0.20502  0.05526 -0.05626 -0.06737
                  z   0.15355  0.41974  0.41955  0.27415 -0.27456 -0.28938
 13   h           x  -0.00084 -0.17508 -0.17487 -0.00068  0.00073  0.00242
                  y   0.18645  0.00035  0.00058  0.26716 -0.26293 -0.22153
                  z  -0.31307  0.00068  0.00027 -0.48778  0.48278  0.41716
 14   h           x  -0.02854 -0.09586 -0.09587 -0.04825  0.04788  0.04924
                  y   0.01274  0.20569  0.20550  0.05456 -0.05570 -0.07060
                  z   0.15289 -0.41931 -0.41866  0.27632 -0.27642 -0.28385
 15   h           x  -0.02856 -0.09574  0.09595  0.04805  0.04778  0.04920
                  y   0.01290  0.20553 -0.20580 -0.05445 -0.05571 -0.07080
                  z   0.15267 -0.41873  0.41904 -0.27628 -0.27698 -0.28359
 16   h           x  -0.00090 -0.17488  0.17506  0.00051  0.00057  0.00253
                  y   0.18644  0.00057 -0.00078 -0.26686 -0.26322 -0.22152
                  z  -0.31308  0.00054 -0.00018  0.48728  0.48334  0.41717
 17   h           x   0.02944 -0.09379  0.09393 -0.05089 -0.05056 -0.04995
                  y   0.01202 -0.20495  0.20516 -0.05527 -0.05640 -0.06719
                  z   0.15376  0.41939 -0.42012 -0.27361 -0.27462 -0.28964

reduced mass(g/mol)    11.824    1.380    1.377    1.853    2.048    4.588


       mode              37       38       39       40       41       42

     frequency        1005.76  1020.22  1020.52  1283.56  1283.70  1436.80

     symmetry            a        a        a        a        a        a   

        IR               YES      YES      YES      YES      YES      YES
|dDIP/dQ|   (a.u.)     0.0000   0.0000   0.0139   0.0047   0.0000   0.0017
intensity (km/mol)       0.00     0.00   340.92    38.89     0.00     5.28
intensity (  %   )       0.00     0.00    90.20    10.29     0.00     1.40
 
       RAMAN             YES      YES      YES      YES      YES      YES
 
  1   c           x  -0.00004  0.06643  0.06730  0.00020 -0.00021 -0.00006
                  y   0.07885 -0.00029  0.00066 -0.03588  0.03614 -0.04040
                  z   0.06289 -0.00024  0.00057  0.09021 -0.09054 -0.01207
  2   s           x   0.00011 -0.26863 -0.26669  0.00002 -0.00001 -0.00002
                  y  -0.15203 -0.00039 -0.00189  0.00340 -0.00390 -0.00417
                  z  -0.04592  0.00099  0.00032 -0.00023  0.00026 -0.00322
  3   o           x  -0.14002  0.25914  0.25906  0.00284 -0.00308  0.00047
                  y   0.13390 -0.17508 -0.16764 -0.00304  0.00375  0.00106
                  z   0.02904 -0.01213 -0.01284 -0.00076  0.00076  0.00176
  4   o           x   0.13989  0.26143  0.26411 -0.00287  0.00310 -0.00045
                  y   0.13285  0.17563  0.17107 -0.00305  0.00374  0.00106
                  z   0.02818  0.01070  0.01181 -0.00074  0.00074  0.00177
  5   np          x   0.00000  0.00001 -0.00395  0.00000 -0.00000 -0.00000
                  y   0.00000  0.00000 -0.00000 -0.00017  0.00000  0.00011
                  z   0.00000  0.00000 -0.00000  0.00066 -0.00000 -0.00028
  6   o           x  -0.00006 -0.00086  0.01000 -0.00002  0.00001  0.00001
                  y   0.01016 -0.00059  0.00008  0.00184 -0.00129 -0.00090
                  z  -0.03497 -0.00072  0.00005 -0.00400  0.00138  0.00172
  7   o           x   0.13984 -0.26089  0.25832  0.00285  0.00307  0.00047
                  y  -0.13360  0.17601 -0.16697 -0.00305 -0.00374  0.00106
                  z  -0.02899  0.01218 -0.01278 -0.00076 -0.00076  0.00176
  8   s           x   0.00007  0.26993 -0.26540  0.00001  0.00001 -0.00001
                  y   0.15203  0.00025 -0.00169  0.00341  0.00389 -0.00417
                  z   0.04592 -0.00101  0.00035 -0.00023 -0.00026 -0.00323
  9   c           x   0.00003 -0.06676  0.06698  0.00021  0.00021 -0.00001
                  y  -0.07884  0.00038  0.00055 -0.03597 -0.03605 -0.04041
                  z  -0.06289  0.00034  0.00045  0.09043  0.09031 -0.01207
 10   o           x   0.00005  0.00081  0.01001 -0.00002 -0.00001  0.00001
                  y  -0.01016  0.00058  0.00007  0.00184  0.00129 -0.00090
                  z   0.03497  0.00072  0.00010 -0.00400 -0.00137  0.00172
 11   o           x  -0.14008 -0.26224  0.26235 -0.00287 -0.00309 -0.00045
                  y  -0.13314 -0.17636  0.17007 -0.00306 -0.00374  0.00106
                  z  -0.02824 -0.01078  0.01177 -0.00075 -0.00074  0.00177
 12   h           x   0.04947  0.07947 -0.08037  0.11339  0.11342  0.27343
                  y   0.06914  0.14111 -0.14192  0.06199  0.06226  0.37938
                  z   0.29049 -0.27307  0.27413 -0.37615 -0.37491  0.01348
 13   h           x  -0.00161  0.15746 -0.15422 -0.00031 -0.00031 -0.00104
                  y   0.21076 -0.00113 -0.00146  0.28306  0.28248 -0.17898
                  z  -0.40071  0.00090  0.00404 -0.30851 -0.30799  0.16649
 14   h           x  -0.04789  0.08100 -0.08072 -0.11561 -0.11563 -0.27203
                  y   0.07081 -0.14170  0.14075  0.06233  0.06260  0.38137
                  z   0.28803  0.27151 -0.27933 -0.37541 -0.37418  0.01668
 15   h           x   0.04787 -0.08049 -0.08098 -0.11539  0.11597 -0.27165
                  y  -0.07103  0.14093  0.14132  0.06225 -0.06283  0.38139
                  z  -0.28772 -0.27066 -0.28124 -0.37445  0.37505  0.01667
 16   h           x   0.00175 -0.15670 -0.15497 -0.00020  0.00021 -0.00101
                  y  -0.21076  0.00087 -0.00177  0.28237 -0.28316 -0.17891
                  z   0.40073 -0.00016  0.00489 -0.30777  0.30876  0.16644
 17   h           x  -0.04950 -0.07919 -0.08088  0.11306 -0.11364  0.27362
                  y  -0.06894 -0.14048 -0.14268  0.06174 -0.06231  0.37910
                  z  -0.29082  0.27121  0.27483 -0.37528  0.37588  0.01345

reduced mass(g/mol)     5.129   11.553   11.315    1.218    1.219    1.049


       mode              43       44       45       46       47       48

     frequency        1436.93  1447.68  1447.69  3040.28  3040.47  3148.75

     symmetry            a        a        a        a        a        a   

        IR               YES      YES      YES      YES      YES      YES
|dDIP/dQ|   (a.u.)     0.0000   0.0001   0.0023   0.0059   0.0000   0.0000
intensity (km/mol)       0.00     0.02     9.02    62.69     0.00     0.00
intensity (  %   )       0.00     0.01     2.39    16.59     0.00     0.00
 
       RAMAN             YES      YES      YES      YES      YES      YES
 
  1   c           x   0.00006  0.04288  0.04757 -0.00008 -0.00008 -0.06658
                  y   0.04033 -0.00004 -0.00004  0.01039  0.01040  0.00036
                  z   0.01218 -0.00012 -0.00013 -0.02784 -0.02781  0.00031
  2   s           x   0.00001  0.00281  0.00295  0.00000 -0.00000 -0.00053
                  y   0.00436 -0.00000 -0.00000 -0.00003  0.00000  0.00000
                  z   0.00321 -0.00001 -0.00001  0.00013  0.00013  0.00000
  3   o           x  -0.00043 -0.00028 -0.00013 -0.00015 -0.00015  0.00032
                  y  -0.00138 -0.00021 -0.00037  0.00005 -0.00003 -0.00010
                  z  -0.00177  0.00021  0.00024 -0.00003 -0.00003 -0.00012
  4   o           x   0.00042 -0.00027 -0.00012  0.00015  0.00015  0.00032
                  y  -0.00137  0.00020  0.00036  0.00005 -0.00003  0.00009
                  z  -0.00178 -0.00021 -0.00024 -0.00003 -0.00003  0.00012
  5   np          x  -0.00000  0.00000 -0.00003  0.00000  0.00000 -0.00000
                  y  -0.00000  0.00000  0.00000 -0.00002  0.00000 -0.00000
                  z   0.00000 -0.00000  0.00000  0.00004  0.00000 -0.00000
  6   o           x  -0.00001  0.00068  0.00066 -0.00000 -0.00000  0.00001
                  y   0.00068  0.00001  0.00000  0.00003 -0.00002 -0.00000
                  z  -0.00058 -0.00000 -0.00001 -0.00034 -0.00018 -0.00000
  7   o           x   0.00043  0.00029 -0.00010 -0.00015  0.00015 -0.00032
                  y   0.00138  0.00024 -0.00035  0.00005  0.00003  0.00010
                  z   0.00177 -0.00023  0.00022 -0.00003  0.00003  0.00012
  8   s           x  -0.00001 -0.00309  0.00264  0.00000  0.00000  0.00053
                  y  -0.00436 -0.00000  0.00000 -0.00003 -0.00000 -0.00000
                  z  -0.00321  0.00001 -0.00001  0.00013 -0.00013 -0.00000
  9   c           x  -0.00002 -0.04753  0.04292 -0.00008  0.00008  0.06632
                  y  -0.04032 -0.00000  0.00000  0.01039 -0.01040 -0.00029
                  z  -0.01218  0.00011 -0.00010 -0.02784  0.02781 -0.00028
 10   o           x   0.00001 -0.00074  0.00058 -0.00000  0.00000 -0.00001
                  y  -0.00068 -0.00001  0.00000  0.00003  0.00002  0.00000
                  z   0.00058  0.00000 -0.00001 -0.00034  0.00018  0.00000
 11   o           x  -0.00042  0.00028 -0.00009  0.00015 -0.00015 -0.00032
                  y   0.00137 -0.00024  0.00034  0.00005  0.00003 -0.00009
                  z   0.00178  0.00023 -0.00022 -0.00003  0.00003 -0.00011
 12   h           x   0.27324  0.05745 -0.05188  0.33791 -0.33799 -0.40573
                  y   0.37917  0.18678 -0.16857 -0.22326  0.22333  0.28325
                  z   0.01360  0.29072 -0.26216  0.03616 -0.03618 -0.05031
 13   h           x  -0.00103  0.55192 -0.49798  0.00152 -0.00152  0.01393
                  y  -0.17922 -0.00165  0.00149  0.32210 -0.32208  0.00106
                  z   0.16684 -0.00139  0.00125  0.25441 -0.25427  0.00086
 14   h           x  -0.27184  0.05342 -0.04822 -0.33850  0.33859 -0.40543
                  y   0.38114 -0.18514  0.16707 -0.22181  0.22189 -0.28088
                  z   0.01680 -0.29083  0.26227  0.03841 -0.03843  0.05287
 15   h           x   0.27165 -0.04805 -0.05330 -0.33867 -0.33869  0.40710
                  y  -0.38142  0.16714  0.18532 -0.22159 -0.22162  0.28163
                  z  -0.01680  0.26240  0.29074  0.03851  0.03852 -0.05318
 16   h           x   0.00099 -0.49791 -0.55198  0.00182  0.00181 -0.01398
                  y   0.17928  0.00179  0.00199  0.32214  0.32205 -0.00127
                  z  -0.16690  0.00144  0.00158  0.25443  0.25424 -0.00104
 17   h           x  -0.27362 -0.05196 -0.05764  0.33781  0.33782  0.40724
                  y  -0.37914 -0.16840 -0.18673 -0.22353 -0.22355 -0.28471
                  z  -0.01359 -0.26226 -0.29058  0.03608  0.03610  0.05043

reduced mass(g/mol)     1.049    1.054    1.054    1.027    1.027    1.105


       mode              49       50       51

     frequency        3148.77  3157.73  3157.73

     symmetry            a        a        a   

        IR               YES      YES      YES
|dDIP/dQ|   (a.u.)     0.0037   0.0006   0.0000
intensity (km/mol)      23.90     0.69     0.00
intensity (  %   )       6.32     0.18     0.00
 
       RAMAN             YES      YES      YES
 
  1   c           x   0.06632  0.00043  0.00047
                  y  -0.00035  0.05974  0.06514
                  z  -0.00031  0.02347  0.02560
  2   s           x   0.00053  0.00000  0.00000
                  y  -0.00000  0.00024  0.00025
                  z  -0.00000  0.00032  0.00035
  3   o           x  -0.00034  0.00004  0.00004
                  y   0.00009 -0.00011 -0.00010
                  z   0.00012 -0.00008 -0.00010
  4   o           x  -0.00034 -0.00004 -0.00004
                  y  -0.00009 -0.00011 -0.00011
                  z  -0.00012 -0.00008 -0.00010
  5   np          x   0.00001 -0.00000 -0.00000
                  y   0.00000 -0.00001 -0.00000
                  z   0.00000 -0.00004 -0.00000
  6   o           x  -0.00003  0.00000  0.00000
                  y  -0.00000  0.00007  0.00006
                  z  -0.00000  0.00033  0.00026
  7   o           x  -0.00034  0.00004 -0.00004
                  y   0.00009 -0.00012  0.00009
                  z   0.00012 -0.00009  0.00009
  8   s           x   0.00053  0.00000 -0.00000
                  y  -0.00000  0.00026 -0.00023
                  z  -0.00000  0.00035 -0.00032
  9   c           x   0.06658  0.00038 -0.00036
                  y  -0.00028  0.06514 -0.05974
                  z  -0.00028  0.02560 -0.02348
 10   o           x  -0.00003  0.00000 -0.00000
                  y  -0.00000  0.00007 -0.00005
                  z  -0.00000  0.00035 -0.00023
 11   o           x  -0.00034 -0.00004  0.00004
                  y  -0.00009 -0.00012  0.00010
                  z  -0.00012 -0.00009  0.00009
 12   h           x  -0.40729  0.25177 -0.23075
                  y   0.28435 -0.16087  0.14743
                  z  -0.05051  0.03283 -0.03008
 13   h           x   0.01400 -0.00221  0.00203
                  y   0.00102 -0.45891  0.42094
                  z   0.00083 -0.38150  0.34994
 14   h           x  -0.40705 -0.25416  0.23304
                  y  -0.28202 -0.16119  0.14779
                  z   0.05309  0.03476 -0.03187
 15   h           x  -0.40554 -0.23336 -0.25442
                  y  -0.28056 -0.14779 -0.16111
                  z   0.05298  0.03197  0.03485
 16   h           x   0.01395 -0.00241 -0.00263
                  y   0.00122 -0.42086 -0.45901
                  z   0.00099 -0.34984 -0.38156
 17   h           x  -0.40561  0.23063  0.25133
                  y   0.28358 -0.14757 -0.16081
                  z  -0.05022  0.03003  0.03272

reduced mass(g/mol)     1.105    1.107    1.107
 

         **************************************************************
         *                                                            *
         *  zero point VIBRATIONAL energy  :      0.0976428  Hartree  *
         *    SCF-energy                   :  -1841.6402859           *
         *    SCF + E(vib0)                :  -1841.5426431           *
         *                                                            *
         **************************************************************




 time elapsed for vibrational analysis     0.22 sec


    ------------------------------------------------------------------------
         total  cpu-time :   3 days  5 hours 20 minutes and 40 seconds
         total wall-time :  9 hours 44 minutes and 42 seconds
    ------------------------------------------------------------------------

   ****  force : all done  ****


    2018-02-13 13:12:22.173 

aoforce ended normally 
