
   OpenMP run-time library returned nthreads =  8
 operating system is UNIX !

 dscf (u-3-6.local) : TURBOMOLE V7.2 ( 21471 ) 11 Oct 2017 at 17:04:51
 Copyright (C) 2017 TURBOMOLE GmbH, Karlsruhe


    2018-12-11 00:10:31.002 



                             d s c f - program

                   idea & directorship : reinhart ahlrichs
                   program development : marco haeser
                                         michael baer
                           dft version : oliver treutler


                          quantum chemistry group
                          universitaet  karlsruhe
                                  germany




                          References             
                                                 
          TURBOMOLE:                             
              R. Ahlrichs, M. Baer, M. Haeser, H. Horn, and
              C. Koelmel
              Electronic structure calculations on workstation
              computers: the program system TURBOMOLE
              Chem. Phys. Lett. 162: 165 (1989)
          Density Functional:                              
              O. Treutler and R. Ahlrichs                      
              Efficient Molecular Numerical Integration Schemes
              J. Chem. Phys. 102: 346 (1995)                   
          Parallel Version:                                
              Performance of parallel TURBOMOLE for Density    
              Functional Calculations                          
              M. v. Arnim and R. Ahlrichs                      
              J. Comp. Chem. 19: 1746 (1998)                   
                                         



 UHF mode switched on !


              +--------------------------------------------------+
              | Atomic coordinate, charge and isotop information |
              +--------------------------------------------------+

                    atomic coordinates            atom    charge  isotop
         -3.12375344    2.09710198    2.39187672    c      6.000     0
         -2.10875952   -1.18255479    2.38964245    s     16.000     0
         -2.34258900   -1.85123589   -0.41917523    o      8.000     0
          2.27138049   -1.30473330   -1.57694623    np    93.000     0
          5.89759935   -0.96196084   -4.15339268    o      8.000     0
          0.71533677   -0.91019069    2.96459257    o      8.000     0
          2.81700723   -4.58906611   -1.16714033    o      8.000     0
          1.78694103    2.00713073   -1.91080108    o      8.000     0
         -2.88030482    2.84990638    4.29478377    h      1.000     0
         -1.92314770    3.08101604    1.03518171    h      1.000     0
         -5.10518208    2.16193423    1.82903109    h      1.000     0
          3.99547169   -1.39734774   -5.67765275    o      8.000     0
 
       center of nuclear mass  :    1.65519653   -1.14981336   -1.12340797
       center of nuclear charge:    1.51689888   -1.09160825   -1.02301216

              +--------------------------------------------------+
              |               basis set information              |
              +--------------------------------------------------+

              we will work with the 1s 3p 5d 7f 9g ... basis set
              ...i.e. with spherical basis functions...

   type   atoms  prim   cont   basis
   ---------------------------------------------------------------------------
    c        1     66     46   aug-cc-pVTZ   [5s4p3d2f|19s6p3d2f]
    s        1    122     50   aug-cc-pVTZ   [6s5p3d2f|42s17p3d2f]
    o        6     66     46   aug-cc-pVTZ   [5s4p3d2f|19s6p3d2f]
    np       1    213    117   SVP(6g)   [10s9p5d4f3g|14s13p10d8f6g]
    h        3     25     23   aug-cc-pVTZ   [4s3p2d|6s3p2d]
   ---------------------------------------------------------------------------
   total:   12    872    558
   ---------------------------------------------------------------------------

   total number of primitive shells          :  186
   total number of contracted shells         :  172
   total number of cartesian basis functions :  671
   total number of SCF-basis functions       :  558


 integral neglect threshold       :  0.50E-11
 integral storage threshold THIZE :  0.10E-04
 integral storage threshold THIME :         5


 DENSITY CONVERGENCE CHECK SWITCHED ON !
 SCF CONVERGENCE IF RMS(delta[D]) <     0.1000000000E-06

 number of unique ecp types :                     1

 symmetry group of the molecule :   c1 

 the group has the following generators :
   c1(z)

    1 symmetry operations found

 there are 1 real representations :   a   

 maximum number of shells which are related by symmetry :  1


    mo occupation :
   irrep   mo's   occupied
    a      558       54
 
 number of basis functions   :                    558
 number of occupied orbitals :                     54
 

 closed shell shift switched on 
 all occupied orbitals are shifted by    0.05000


   ----> a dscf RESTART run will be tried ! <----
     2e integrals will be read from 2e integral file(s)

 $restart flag 'dscf  twoint' will be switched off !


          ------------------------
          nuclear repulsion energy  :   939.660146326    
          ------------------------


         -----------------
         -S,T+V- integrals
         -----------------

 1e-integrals will be neglected if expon. factor < 0.498057E-12


          ----------------
          -ecp-  integrals
          ----------------
 
   Difference densities algorithm switched on.
   The maximal number of linear combinations of
   difference densities is                    20 .

 DIIS switched on: error vector is FDS-SDF
 Max. Iterations for DIIS is     :   5
 DIIS matrix (see manual) 
    Scaling factor of diagonals  :  1.200
    threshold for scaling factor :  0.000

 scf convergence criterion : increment of total energy < .1000000D-06
                  and increment of one-electron energy < .1000000D-03

  MOs are in ASCII format !


 reading orbital data $uhfmo_alpha  from file alpha
 orbital characterization : scfdump=300

 reading orbital data $uhfmo_beta  from file beta
 orbital characterization : scfdump=300

 DSCF restart information will be dumped onto file alpha


 complete restart information read in from $restartd
 iterations from earlier run will be continued
no density matrices from previous iterations found
  expected :                      8  found :                      0
 
                                              current damping :  0.050
 ITERATION  ENERGY          1e-ENERGY        2e-ENERGY     RMS[dD(SAO)]   TOL
 301  -1399.0849674756    -3994.8957223     1656.1506085    0.496D-01 0.497D-11
          max. resid. norm for Fia-block=  1.375D-04 for orbital     46a    beta 
          max. resid. fock norm         =  1.376D-04 for orbital     46a    beta 
          Delta Eig. =     0.0000721301 eV 
 
                                              current damping :  0.100
 ITERATION  ENERGY          1e-ENERGY        2e-ENERGY     RMS[dD(SAO)]   TOL
 302  -1399.0849675965    -3994.8957241     1656.1506102    0.385D-06 0.315D-11
          Norm of current diis error: 0.50116E-03
          max. resid. norm for Fia-block=  1.369D-04 for orbital     46a    beta 
          max. resid. fock norm         =  1.371D-04 for orbital     46a    beta 
          Delta Eig. =     0.0000607798 eV 
 
                                              current damping :  0.150
 ITERATION  ENERGY          1e-ENERGY        2e-ENERGY     RMS[dD(SAO)]   TOL
 303  -1399.0849677086    -3994.8957147     1656.1506007    0.340D-06 0.218D-11
          Norm of current diis error: 0.50082E-03
          max. resid. norm for Fia-block=  1.376D-04 for orbital     46a    beta 
          max. resid. fock norm         =  1.378D-04 for orbital     46a    beta 
          Delta Eig. =     0.0000670457 eV 
 
                                              current damping :  0.200
 ITERATION  ENERGY          1e-ENERGY        2e-ENERGY     RMS[dD(SAO)]   TOL
 304  -1399.0849678172    -3994.8957169     1656.1506027    0.324D-06 0.172D-11
          Norm of current diis error: 0.50036E-03
          max. resid. norm for Fia-block=  1.410D-04 for orbital     46a    beta 
          max. resid. fock norm         =  1.412D-04 for orbital     46a    beta 
          Delta Eig. =     0.0000580488 eV 
 
                                              current damping :  0.250
 ITERATION  ENERGY          1e-ENERGY        2e-ENERGY     RMS[dD(SAO)]   TOL
 305  -1399.0849679248    -3994.8957087     1656.1505945    0.321D-06 0.148D-11
          Norm of current diis error: 0.49982E-03
          max. resid. norm for Fia-block=  1.490D-04 for orbital     46a    beta 
          max. resid. fock norm         =  1.491D-04 for orbital     46a    beta 
 mo-orthogonalization: Cholesky decomposition
          Delta Eig. =     0.0000657885 eV 
 
                                              current damping :  0.300
 ITERATION  ENERGY          1e-ENERGY        2e-ENERGY     RMS[dD(SAO)]   TOL
 306  -1399.0849680315    -3994.8957094     1656.1505950    0.324D-06 0.142D-11
          Norm of current diis error: 0.49913E-03
          max. resid. norm for Fia-block=  1.551D-04 for orbital     46a    beta 
          max. resid. fock norm         =  1.552D-04 for orbital     46a    beta 
          Delta Eig. =     0.0000604791 eV 
 
                                              current damping :  0.350
 ITERATION  ENERGY          1e-ENERGY        2e-ENERGY     RMS[dD(SAO)]   TOL
 307  -1399.0849681351    -3994.8957031     1656.1505886    0.324D-06 0.142D-11
          Norm of current diis error: 0.49845E-03
          max. resid. norm for Fia-block=  1.574D-04 for orbital     46a    beta 
          max. resid. fock norm         =  1.575D-04 for orbital     46a    beta 
          Delta Eig. =     0.0000628592 eV 
 
                                              current damping :  0.200
 ITERATION  ENERGY          1e-ENERGY        2e-ENERGY     RMS[dD(SAO)]   TOL
 308  -1399.0849682388    -3994.8957019     1656.1505873    0.326D-06 0.142D-11
          Norm of current diis error: 0.49787E-03
          max. resid. norm for Fia-block=  1.574D-04 for orbital     46a    beta 
          max. resid. fock norm         =  1.576D-04 for orbital     46a    beta 
          Delta Eig. =     0.0000677067 eV 
 
                                              current damping :  0.050
 ITERATION  ENERGY          1e-ENERGY        2e-ENERGY     RMS[dD(SAO)]   TOL
 309  -1399.0849683541    -3994.8956966     1656.1505819    0.367D-06 0.142D-11
          Norm of current diis error: 0.49730E-03
          max. resid. norm for Fia-block=  1.574D-04 for orbital     46a    beta 
          max. resid. fock norm         =  1.576D-04 for orbital     46a    beta 
          Delta Eig. =     0.0000797657 eV 
 
                                              current damping :  0.050
 ITERATION  ENERGY          1e-ENERGY        2e-ENERGY     RMS[dD(SAO)]   TOL
 310  -1399.0849684824    -3994.8956938     1656.1505790    0.411D-06 0.142D-11
          Norm of current diis error: 0.49669E-03
          max. resid. norm for Fia-block=  1.586D-04 for orbital     46a    beta 
          max. resid. fock norm         =  1.587D-04 for orbital     46a    beta 
 mo-orthogonalization: Cholesky decomposition
          Delta Eig. =     0.0000780110 eV 
 
                                              current damping :  0.050
 ITERATION  ENERGY          1e-ENERGY        2e-ENERGY     RMS[dD(SAO)]   TOL
 311  -1399.0849686168    -3994.8956880     1656.1505731    0.416D-06 0.142D-11
          Norm of current diis error: 0.49605E-03
          max. resid. norm for Fia-block=  1.601D-04 for orbital     46a    beta 
          max. resid. fock norm         =  1.603D-04 for orbital     46a    beta 
          Delta Eig. =     0.0000814023 eV 
 
                                              current damping :  0.050
 ITERATION  ENERGY          1e-ENERGY        2e-ENERGY     RMS[dD(SAO)]   TOL
 312  -1399.0849687521    -3994.8956855     1656.1505704    0.415D-06 0.142D-11
          Norm of current diis error: 0.49540E-03
          max. resid. norm for Fia-block=  1.621D-04 for orbital     46a    beta 
          max. resid. fock norm         =  1.623D-04 for orbital     46a    beta 
          Delta Eig. =     0.0000794926 eV 
 
                                              current damping :  0.050
 ITERATION  ENERGY          1e-ENERGY        2e-ENERGY     RMS[dD(SAO)]   TOL
 313  -1399.0849688891    -3994.8956792     1656.1505639    0.417D-06 0.142D-11
          Norm of current diis error: 0.49472E-03
          max. resid. norm for Fia-block=  1.638D-04 for orbital     46a    beta 
          max. resid. fock norm         =  1.639D-04 for orbital     46a    beta 
          Delta Eig. =     0.0000836311 eV 
 
                                              current damping :  0.050
 ITERATION  ENERGY          1e-ENERGY        2e-ENERGY     RMS[dD(SAO)]   TOL
 314  -1399.0849690249    -3994.8956770     1656.1505617    0.425D-06 0.141D-11
          Norm of current diis error: 0.49404E-03
          max. resid. norm for Fia-block=  1.645D-04 for orbital     46a    beta 
          max. resid. fock norm         =  1.647D-04 for orbital     46a    beta 
          Delta Eig. =     0.0000801473 eV 
 
                                              current damping :  0.050
 ITERATION  ENERGY          1e-ENERGY        2e-ENERGY     RMS[dD(SAO)]   TOL
 315  -1399.0849691646    -3994.8956700     1656.1505545    0.426D-06 0.142D-11
          Norm of current diis error: 0.49338E-03
          max. resid. norm for Fia-block=  1.647D-04 for orbital     46a    beta 
          max. resid. fock norm         =  1.649D-04 for orbital     46a    beta 
 mo-orthogonalization: Cholesky decomposition
          Delta Eig. =     0.0000846185 eV 
 
                                              current damping :  0.050
 ITERATION  ENERGY          1e-ENERGY        2e-ENERGY     RMS[dD(SAO)]   TOL
 316  -1399.0849693053    -3994.8956686     1656.1505529    0.428D-06 0.141D-11
          Norm of current diis error: 0.49275E-03
          max. resid. norm for Fia-block=  1.642D-04 for orbital     46a    beta 
          max. resid. fock norm         =  1.644D-04 for orbital     46a    beta 
          Delta Eig. =     0.0000792340 eV 
 
                                              current damping :  0.050
 ITERATION  ENERGY          1e-ENERGY        2e-ENERGY     RMS[dD(SAO)]   TOL
 317  -1399.0849694430    -3994.8956605     1656.1505447    0.426D-06 0.142D-11
          Norm of current diis error: 0.49213E-03
          max. resid. norm for Fia-block=  1.632D-04 for orbital     46a    beta 
          max. resid. fock norm         =  1.634D-04 for orbital     46a    beta 
          Delta Eig. =     0.0000846564 eV 
 density matrices became linear dependent...
 subr. ddmat can not establish optimal linear combination of delta densities !
 next fock matrix will be calculated from scratch !
 
                                              current damping :  0.050
 ITERATION  ENERGY          1e-ENERGY        2e-ENERGY     RMS[dD(SAO)]   TOL
 318  -1399.0849695741    -3994.8956602     1656.1505443    0.420D-06 0.497D-11
          Norm of current diis error: 0.49154E-03
          max. resid. norm for Fia-block=  1.621D-04 for orbital     46a    beta 
          max. resid. fock norm         =  1.622D-04 for orbital     46a    beta 
          Delta Eig. =     0.0000771991 eV 
 
                                              current damping :  0.050
 ITERATION  ENERGY          1e-ENERGY        2e-ENERGY     RMS[dD(SAO)]   TOL
 319  -1399.0849697129    -3994.8956510     1656.1505350    0.441D-06 0.315D-11
          Norm of current diis error: 0.49097E-03
          max. resid. norm for Fia-block=  1.609D-04 for orbital     46a    beta 
          max. resid. fock norm         =  1.611D-04 for orbital     46a    beta 
          Delta Eig. =     0.0000844976 eV 
 
                                              current damping :  0.100
 ITERATION  ENERGY          1e-ENERGY        2e-ENERGY     RMS[dD(SAO)]   TOL
 320  -1399.0849698422    -3994.8956521     1656.1505359    0.424D-06 0.212D-11
          Norm of current diis error: 0.49040E-03
          max. resid. norm for Fia-block=  1.601D-04 for orbital     46a    beta 
          max. resid. fock norm         =  1.602D-04 for orbital     46a    beta 
 mo-orthogonalization: Cholesky decomposition
          Delta Eig. =     0.0000717116 eV 
 
                                              current damping :  0.150
 ITERATION  ENERGY          1e-ENERGY        2e-ENERGY     RMS[dD(SAO)]   TOL
 321  -1399.0849699641    -3994.8956420     1656.1505257    0.397D-06 0.167D-11
          Norm of current diis error: 0.48985E-03
          max. resid. norm for Fia-block=  1.587D-04 for orbital     46a    beta 
          max. resid. fock norm         =  1.589D-04 for orbital     46a    beta 
          Delta Eig. =     0.0000769147 eV 
 
                                              current damping :  0.200
 ITERATION  ENERGY          1e-ENERGY        2e-ENERGY     RMS[dD(SAO)]   TOL
 322  -1399.0849700787    -3994.8956440     1656.1505276    0.378D-06 0.143D-11
          Norm of current diis error: 0.48934E-03
          max. resid. norm for Fia-block=  1.568D-04 for orbital     46a    beta 
          max. resid. fock norm         =  1.570D-04 for orbital     46a    beta 
          Delta Eig. =     0.0000643052 eV 
 
                                              current damping :  0.250
 ITERATION  ENERGY          1e-ENERGY        2e-ENERGY     RMS[dD(SAO)]   TOL
 323  -1399.0849701968    -3994.8956348     1656.1505183    0.360D-06 0.142D-11
          Norm of current diis error: 0.48887E-03
          max. resid. norm for Fia-block=  1.544D-04 for orbital     46a    beta 
          max. resid. fock norm         =  1.546D-04 for orbital     46a    beta 
          Delta Eig. =     0.0000681541 eV 
 
                                              current damping :  0.300
 ITERATION  ENERGY          1e-ENERGY        2e-ENERGY     RMS[dD(SAO)]   TOL
 324  -1399.0849703153    -3994.8956359     1656.1505192    0.336D-06 0.142D-11
          Norm of current diis error: 0.48845E-03
          max. resid. norm for Fia-block=  1.517D-04 for orbital     46a    beta 
          max. resid. fock norm         =  1.518D-04 for orbital     46a    beta 
          Delta Eig. =     0.0000584272 eV 
 
                                              current damping :  0.350
 ITERATION  ENERGY          1e-ENERGY        2e-ENERGY     RMS[dD(SAO)]   TOL
 325  -1399.0849704242    -3994.8956291     1656.1505124    0.320D-06 0.142D-11
          Norm of current diis error: 0.48807E-03
          max. resid. norm for Fia-block=  1.491D-04 for orbital     46a    beta 
          max. resid. fock norm         =  1.492D-04 for orbital     46a    beta 
 mo-orthogonalization: Cholesky decomposition
          Delta Eig. =     0.0000596111 eV 
 
                                              current damping :  0.200
 ITERATION  ENERGY          1e-ENERGY        2e-ENERGY     RMS[dD(SAO)]   TOL
 326  -1399.0849705286    -3994.8956283     1656.1505114    0.299D-06 0.142D-11
          Norm of current diis error: 0.48771E-03
          max. resid. norm for Fia-block=  1.469D-04 for orbital     46a    beta 
          max. resid. fock norm         =  1.470D-04 for orbital     46a    beta 
          Delta Eig. =     0.0000628185 eV 
 
                                              current damping :  0.050
 ITERATION  ENERGY          1e-ENERGY        2e-ENERGY     RMS[dD(SAO)]   TOL
 327  -1399.0849706343    -3994.8956231     1656.1505061    0.335D-06 0.142D-11
          Norm of current diis error: 0.48731E-03
          max. resid. norm for Fia-block=  1.464D-04 for orbital     46a    beta 
          max. resid. fock norm         =  1.466D-04 for orbital     46a    beta 
          Delta Eig. =     0.0000743379 eV 
 
                                              current damping :  0.050
 ITERATION  ENERGY          1e-ENERGY        2e-ENERGY     RMS[dD(SAO)]   TOL
 328  -1399.0849707487    -3994.8956207     1656.1505037    0.383D-06 0.142D-11
          Norm of current diis error: 0.48680E-03
          max. resid. norm for Fia-block=  1.486D-04 for orbital     46a    beta 
          max. resid. fock norm         =  1.487D-04 for orbital     46a    beta 
          Delta Eig. =     0.0000728952 eV 
 
                                              current damping :  0.050
 ITERATION  ENERGY          1e-ENERGY        2e-ENERGY     RMS[dD(SAO)]   TOL
 329  -1399.0849708713    -3994.8956151     1656.1504979    0.386D-06 0.142D-11
          Norm of current diis error: 0.48617E-03
          max. resid. norm for Fia-block=  1.523D-04 for orbital     46a    beta 
          max. resid. fock norm         =  1.525D-04 for orbital     46a    beta 
          Delta Eig. =     0.0000776668 eV 
 
                                              current damping :  0.050
 ITERATION  ENERGY          1e-ENERGY        2e-ENERGY     RMS[dD(SAO)]   TOL
 330  -1399.0849709988    -3994.8956130     1656.1504957    0.393D-06 0.142D-11
          Norm of current diis error: 0.48548E-03
          max. resid. norm for Fia-block=  1.568D-04 for orbital     46a    beta 
          max. resid. fock norm         =  1.570D-04 for orbital     46a    beta 
 mo-orthogonalization: Cholesky decomposition
          Delta Eig. =     0.0000767354 eV 
 
                                              current damping :  0.050
 ITERATION  ENERGY          1e-ENERGY        2e-ENERGY     RMS[dD(SAO)]   TOL
 331  -1399.0849711290    -3994.8956066     1656.1504892    0.405D-06 0.142D-11
          Norm of current diis error: 0.48473E-03
          max. resid. norm for Fia-block=  1.608D-04 for orbital     46a    beta 
          max. resid. fock norm         =  1.610D-04 for orbital     46a    beta 
          Delta Eig. =     0.0000823923 eV 
 
                                              current damping :  0.050
 ITERATION  ENERGY          1e-ENERGY        2e-ENERGY     RMS[dD(SAO)]   TOL
 332  -1399.0849712582    -3994.8956048     1656.1504872    0.419D-06 0.142D-11
          Norm of current diis error: 0.48397E-03
          max. resid. norm for Fia-block=  1.635D-04 for orbital     46a    beta 
          max. resid. fock norm         =  1.637D-04 for orbital     46a    beta 
          Delta Eig. =     0.0000794683 eV 
 
                                              current damping :  0.050
 ITERATION  ENERGY          1e-ENERGY        2e-ENERGY     RMS[dD(SAO)]   TOL
 333  -1399.0849713893    -3994.8955975     1656.1504798    0.422D-06 0.142D-11
          Norm of current diis error: 0.48324E-03
          max. resid. norm for Fia-block=  1.647D-04 for orbital     46a    beta 
          max. resid. fock norm         =  1.648D-04 for orbital     46a    beta 
          Delta Eig. =     0.0000849266 eV 
 
                                              current damping :  0.050
 ITERATION  ENERGY          1e-ENERGY        2e-ENERGY     RMS[dD(SAO)]   TOL
 334  -1399.0849715274    -3994.8955965     1656.1504787    0.426D-06 0.142D-11
          Norm of current diis error: 0.48256E-03
          max. resid. norm for Fia-block=  1.644D-04 for orbital     46a    beta 
          max. resid. fock norm         =  1.646D-04 for orbital     46a    beta 
          Delta Eig. =     0.0000789868 eV 
 density matrices became linear dependent...
 subr. ddmat can not establish optimal linear combination of delta densities !
 next fock matrix will be calculated from scratch !
 
                                              current damping :  0.050
 ITERATION  ENERGY          1e-ENERGY        2e-ENERGY     RMS[dD(SAO)]   TOL
 335  -1399.0849716564    -3994.8955881     1656.1504702    0.423D-06 0.497D-11
          Norm of current diis error: 0.48193E-03
          max. resid. norm for Fia-block=  1.629D-04 for orbital     46a    beta 
          max. resid. fock norm         =  1.631D-04 for orbital     46a    beta 
 mo-orthogonalization: Cholesky decomposition
          Delta Eig. =     0.0000847805 eV 
 
                                              current damping :  0.100
 ITERATION  ENERGY          1e-ENERGY        2e-ENERGY     RMS[dD(SAO)]   TOL
 336  -1399.0849717927    -3994.8955884     1656.1504702    0.433D-06 0.315D-11
          Norm of current diis error: 0.48135E-03
          max. resid. norm for Fia-block=  1.607D-04 for orbital     46a    beta 
          max. resid. fock norm         =  1.608D-04 for orbital     46a    beta 
          Delta Eig. =     0.0000725713 eV 
 
                                              current damping :  0.150
 ITERATION  ENERGY          1e-ENERGY        2e-ENERGY     RMS[dD(SAO)]   TOL
 337  -1399.0849719162    -3994.8955791     1656.1504609    0.396D-06 0.214D-11
          Norm of current diis error: 0.48083E-03
          max. resid. norm for Fia-block=  1.576D-04 for orbital     46a    beta 
          max. resid. fock norm         =  1.577D-04 for orbital     46a    beta 
          Delta Eig. =     0.0000756806 eV 
 
                                              current damping :  0.200
 ITERATION  ENERGY          1e-ENERGY        2e-ENERGY     RMS[dD(SAO)]   TOL
 338  -1399.0849720325    -3994.8955803     1656.1504620    0.373D-06 0.169D-11
          Norm of current diis error: 0.48038E-03
          max. resid. norm for Fia-block=  1.540D-04 for orbital     46a    beta 
          max. resid. fock norm         =  1.541D-04 for orbital     46a    beta 
          Delta Eig. =     0.0000635533 eV 
 
                                              current damping :  0.250
 ITERATION  ENERGY          1e-ENERGY        2e-ENERGY     RMS[dD(SAO)]   TOL
 339  -1399.0849721406    -3994.8955720     1656.1504535    0.352D-06 0.144D-11
          Norm of current diis error: 0.47998E-03
          max. resid. norm for Fia-block=  1.503D-04 for orbital     46a    beta 
          max. resid. fock norm         =  1.505D-04 for orbital     46a    beta 
          Delta Eig. =     0.0000659439 eV 
 
                                              current damping :  0.300
 ITERATION  ENERGY          1e-ENERGY        2e-ENERGY     RMS[dD(SAO)]   TOL
 340  -1399.0849722472    -3994.8955725     1656.1504539    0.334D-06 0.142D-11
          Norm of current diis error: 0.47961E-03
          max. resid. norm for Fia-block=  1.471D-04 for orbital     46a    beta 
          max. resid. fock norm         =  1.473D-04 for orbital     46a    beta 
 mo-orthogonalization: Cholesky decomposition
          Delta Eig. =     0.0000569753 eV 
 
                                              current damping :  0.350
 ITERATION  ENERGY          1e-ENERGY        2e-ENERGY     RMS[dD(SAO)]   TOL
 341  -1399.0849723483    -3994.8955664     1656.1504477    0.307D-06 0.141D-11
          Norm of current diis error: 0.47926E-03
          max. resid. norm for Fia-block=  1.447D-04 for orbital     46a    beta 
          max. resid. fock norm         =  1.448D-04 for orbital     46a    beta 
          Delta Eig. =     0.0000576408 eV 
 
                                              current damping :  0.200
 ITERATION  ENERGY          1e-ENERGY        2e-ENERGY     RMS[dD(SAO)]   TOL
 342  -1399.0849724406    -3994.8955653     1656.1504465    0.305D-06 0.142D-11
          Norm of current diis error: 0.47892E-03
          max. resid. norm for Fia-block=  1.430D-04 for orbital     46a    beta 
          max. resid. fock norm         =  1.431D-04 for orbital     46a    beta 
          Delta Eig. =     0.0000613354 eV 
 
                                              current damping :  0.050
 ITERATION  ENERGY          1e-ENERGY        2e-ENERGY     RMS[dD(SAO)]   TOL
 343  -1399.0849725420    -3994.8955604     1656.1504416    0.337D-06 0.141D-11
          Norm of current diis error: 0.47852E-03
          max. resid. norm for Fia-block=  1.431D-04 for orbital     46a    beta 
          max. resid. fock norm         =  1.433D-04 for orbital     46a    beta 
          Delta Eig. =     0.0000725360 eV 
 
                                              current damping :  0.050
 ITERATION  ENERGY          1e-ENERGY        2e-ENERGY     RMS[dD(SAO)]   TOL
 344  -1399.0849726587    -3994.8955579     1656.1504389    0.379D-06 0.142D-11
          Norm of current diis error: 0.47799E-03
          max. resid. norm for Fia-block=  1.458D-04 for orbital     46a    beta 
          max. resid. fock norm         =  1.459D-04 for orbital     46a    beta 
          Delta Eig. =     0.0000717294 eV 
 
                                              current damping :  0.050
 ITERATION  ENERGY          1e-ENERGY        2e-ENERGY     RMS[dD(SAO)]   TOL
 345  -1399.0849727827    -3994.8955525     1656.1504334    0.381D-06 0.142D-11
          Norm of current diis error: 0.47736E-03
          max. resid. norm for Fia-block=  1.499D-04 for orbital     46a    beta 
          max. resid. fock norm         =  1.500D-04 for orbital     46a    beta 
 mo-orthogonalization: Cholesky decomposition
          Delta Eig. =     0.0000762691 eV 
 
                                              current damping :  0.050
 ITERATION  ENERGY          1e-ENERGY        2e-ENERGY     RMS[dD(SAO)]   TOL
 346  -1399.0849729063    -3994.8955501     1656.1504309    0.390D-06 0.141D-11
          Norm of current diis error: 0.47665E-03
          max. resid. norm for Fia-block=  1.546D-04 for orbital     46a    beta 
          max. resid. fock norm         =  1.547D-04 for orbital     46a    beta 
          Delta Eig. =     0.0000759092 eV 
 
                                              current damping :  0.050
 ITERATION  ENERGY          1e-ENERGY        2e-ENERGY     RMS[dD(SAO)]   TOL
 347  -1399.0849730293    -3994.8955441     1656.1504247    0.399D-06 0.142D-11
          Norm of current diis error: 0.47590E-03
          max. resid. norm for Fia-block=  1.586D-04 for orbital     46a    beta 
          max. resid. fock norm         =  1.588D-04 for orbital     46a    beta 
          Delta Eig. =     0.0000810518 eV 
 
                                              current damping :  0.050
 ITERATION  ENERGY          1e-ENERGY        2e-ENERGY     RMS[dD(SAO)]   TOL
 348  -1399.0849731597    -3994.8955420     1656.1504225    0.411D-06 0.142D-11
          Norm of current diis error: 0.47514E-03
          max. resid. norm for Fia-block=  1.612D-04 for orbital     46a    beta 
          max. resid. fock norm         =  1.614D-04 for orbital     46a    beta 
          Delta Eig. =     0.0000786715 eV 
 
                                              current damping :  0.050
 ITERATION  ENERGY          1e-ENERGY        2e-ENERGY     RMS[dD(SAO)]   TOL
 349  -1399.0849732901    -3994.8955352     1656.1504156    0.415D-06 0.142D-11
          Norm of current diis error: 0.47442E-03
          max. resid. norm for Fia-block=  1.622D-04 for orbital     46a    beta 
          max. resid. fock norm         =  1.624D-04 for orbital     46a    beta 
          Delta Eig. =     0.0000833405 eV 
 
                                              current damping :  0.050
 ITERATION  ENERGY          1e-ENERGY        2e-ENERGY     RMS[dD(SAO)]   TOL
 350  -1399.0849734198    -3994.8955338     1656.1504141    0.419D-06 0.142D-11
          Norm of current diis error: 0.47375E-03
          max. resid. norm for Fia-block=  1.617D-04 for orbital     46a    beta 
          max. resid. fock norm         =  1.619D-04 for orbital     46a    beta 
 mo-orthogonalization: Cholesky decomposition
          Delta Eig. =     0.0000781101 eV 
 
                                              current damping :  0.050
 ITERATION  ENERGY          1e-ENERGY        2e-ENERGY     RMS[dD(SAO)]   TOL
 351  -1399.0849735497    -3994.8955261     1656.1504063    0.416D-06 0.142D-11
          Norm of current diis error: 0.47313E-03
          max. resid. norm for Fia-block=  1.600D-04 for orbital     46a    beta 
          max. resid. fock norm         =  1.602D-04 for orbital     46a    beta 
          Delta Eig. =     0.0000829196 eV 
 density matrices became linear dependent...
 subr. ddmat can not establish optimal linear combination of delta densities !
 next fock matrix will be calculated from scratch !
 
                                              current damping :  0.050
 ITERATION  ENERGY          1e-ENERGY        2e-ENERGY     RMS[dD(SAO)]   TOL
 352  -1399.0849736703    -3994.8955259     1656.1504059    0.412D-06 0.497D-11
          Norm of current diis error: 0.47257E-03
          max. resid. norm for Fia-block=  1.577D-04 for orbital     46a    beta 
          max. resid. fock norm         =  1.578D-04 for orbital     46a    beta 
          Delta Eig. =     0.0000750691 eV 
 
                                              current damping :  0.050
 ITERATION  ENERGY          1e-ENERGY        2e-ENERGY     RMS[dD(SAO)]   TOL
 353  -1399.0849738025    -3994.8955170     1656.1503969    0.428D-06 0.315D-11
          Norm of current diis error: 0.47204E-03
          max. resid. norm for Fia-block=  1.552D-04 for orbital     46a    beta 
          max. resid. fock norm         =  1.554D-04 for orbital     46a    beta 
          Delta Eig. =     0.0000815063 eV 
 
                                              current damping :  0.100
 ITERATION  ENERGY          1e-ENERGY        2e-ENERGY     RMS[dD(SAO)]   TOL
 354  -1399.0849739236    -3994.8955182     1656.1503980    0.402D-06 0.214D-11
          Norm of current diis error: 0.47153E-03
          max. resid. norm for Fia-block=  1.532D-04 for orbital     46a    beta 
          max. resid. fock norm         =  1.534D-04 for orbital     46a    beta 
          Delta Eig. =     0.0000685584 eV 
 
                                              current damping :  0.150
 ITERATION  ENERGY          1e-ENERGY        2e-ENERGY     RMS[dD(SAO)]   TOL
 355  -1399.0849740424    -3994.8955085     1656.1503882    0.379D-06 0.169D-11
          Norm of current diis error: 0.47103E-03
          max. resid. norm for Fia-block=  1.513D-04 for orbital     46a    beta 
          max. resid. fock norm         =  1.514D-04 for orbital     46a    beta 
 mo-orthogonalization: Cholesky decomposition
          Delta Eig. =     0.0000733499 eV 
 
                                              current damping :  0.200
 ITERATION  ENERGY          1e-ENERGY        2e-ENERGY     RMS[dD(SAO)]   TOL
 356  -1399.0849741553    -3994.8955106     1656.1503901    0.362D-06 0.143D-11
          Norm of current diis error: 0.47056E-03
          max. resid. norm for Fia-block=  1.493D-04 for orbital     46a    beta 
          max. resid. fock norm         =  1.494D-04 for orbital     46a    beta 
          Delta Eig. =     0.0000611431 eV 
 
                                              current damping :  0.250
 ITERATION  ENERGY          1e-ENERGY        2e-ENERGY     RMS[dD(SAO)]   TOL
 357  -1399.0849742510    -3994.8955017     1656.1503812    0.349D-06 0.142D-11
          Norm of current diis error: 0.47012E-03
          max. resid. norm for Fia-block=  1.471D-04 for orbital     46a    beta 
          max. resid. fock norm         =  1.473D-04 for orbital     46a    beta 
          Delta Eig. =     0.0000650686 eV 
 
                                              current damping :  0.300
 ITERATION  ENERGY          1e-ENERGY        2e-ENERGY     RMS[dD(SAO)]   TOL
 358  -1399.0849743526    -3994.8955028     1656.1503821    0.330D-06 0.142D-11
          Norm of current diis error: 0.46972E-03
          max. resid. norm for Fia-block=  1.450D-04 for orbital     46a    beta 
          max. resid. fock norm         =  1.451D-04 for orbital     46a    beta 
          Delta Eig. =     0.0000558920 eV 
 
                                              current damping :  0.350
 ITERATION  ENERGY          1e-ENERGY        2e-ENERGY     RMS[dD(SAO)]   TOL
 359  -1399.0849744563    -3994.8954964     1656.1503756    0.312D-06 0.142D-11
          Norm of current diis error: 0.46933E-03
          max. resid. norm for Fia-block=  1.430D-04 for orbital     46a    beta 
          max. resid. fock norm         =  1.431D-04 for orbital     46a    beta 
          Delta Eig. =     0.0000572062 eV 
 
                                              current damping :  0.200
 ITERATION  ENERGY          1e-ENERGY        2e-ENERGY     RMS[dD(SAO)]   TOL
 360  -1399.0849745439    -3994.8954958     1656.1503749    0.296D-06 0.142D-11
          Norm of current diis error: 0.46897E-03
          max. resid. norm for Fia-block=  1.413D-04 for orbital     46a    beta 
          max. resid. fock norm         =  1.414D-04 for orbital     46a    beta 
 mo-orthogonalization: Cholesky decomposition
          Delta Eig. =     0.0000604441 eV 
 
                                              current damping :  0.050
 ITERATION  ENERGY          1e-ENERGY        2e-ENERGY     RMS[dD(SAO)]   TOL
 361  -1399.0849746409    -3994.8954910     1656.1503700    0.330D-06 0.142D-11
          Norm of current diis error: 0.46856E-03
          max. resid. norm for Fia-block=  1.411D-04 for orbital     46a    beta 
          max. resid. fock norm         =  1.412D-04 for orbital     46a    beta 
          Delta Eig. =     0.0000716115 eV 
 
                                              current damping :  0.050
 ITERATION  ENERGY          1e-ENERGY        2e-ENERGY     RMS[dD(SAO)]   TOL
 362  -1399.0849747542    -3994.8954888     1656.1503677    0.367D-06 0.142D-11
          Norm of current diis error: 0.46805E-03
          max. resid. norm for Fia-block=  1.433D-04 for orbital     46a    beta 
          max. resid. fock norm         =  1.434D-04 for orbital     46a    beta 
          Delta Eig. =     0.0000703585 eV 
 
                                              current damping :  0.050
 ITERATION  ENERGY          1e-ENERGY        2e-ENERGY     RMS[dD(SAO)]   TOL
 363  -1399.0849748684    -3994.8954833     1656.1503621    0.372D-06 0.142D-11
          Norm of current diis error: 0.46743E-03
          max. resid. norm for Fia-block=  1.469D-04 for orbital     46a    beta 
          max. resid. fock norm         =  1.471D-04 for orbital     46a    beta 
          Delta Eig. =     0.0000749905 eV 
 
                                              current damping :  0.050
 ITERATION  ENERGY          1e-ENERGY        2e-ENERGY     RMS[dD(SAO)]   TOL
 364  -1399.0849749862    -3994.8954814     1656.1503601    0.380D-06 0.142D-11
          Norm of current diis error: 0.46675E-03
          max. resid. norm for Fia-block=  1.512D-04 for orbital     46a    beta 
          max. resid. fock norm         =  1.514D-04 for orbital     46a    beta 
          Delta Eig. =     0.0000740337 eV 
 
                                              current damping :  0.050
 ITERATION  ENERGY          1e-ENERGY        2e-ENERGY     RMS[dD(SAO)]   TOL
 365  -1399.0849751097    -3994.8954753     1656.1503538    0.391D-06 0.142D-11
          Norm of current diis error: 0.46602E-03
          max. resid. norm for Fia-block=  1.550D-04 for orbital     46a    beta 
          max. resid. fock norm         =  1.552D-04 for orbital     46a    beta 
 mo-orthogonalization: Cholesky decomposition
          Delta Eig. =     0.0000794564 eV 
 
                                              current damping :  0.050
 ITERATION  ENERGY          1e-ENERGY        2e-ENERGY     RMS[dD(SAO)]   TOL
 366  -1399.0849752301    -3994.8954737     1656.1503521    0.401D-06 0.142D-11
          Norm of current diis error: 0.46528E-03
          max. resid. norm for Fia-block=  1.574D-04 for orbital     46a    beta 
          max. resid. fock norm         =  1.576D-04 for orbital     46a    beta 
          Delta Eig. =     0.0000765354 eV 
 
                                              current damping :  0.050
 ITERATION  ENERGY          1e-ENERGY        2e-ENERGY     RMS[dD(SAO)]   TOL
 367  -1399.0849753507    -3994.8954667     1656.1503450    0.406D-06 0.142D-11
          Norm of current diis error: 0.46458E-03
          max. resid. norm for Fia-block=  1.585D-04 for orbital     46a    beta 
          max. resid. fock norm         =  1.586D-04 for orbital     46a    beta 
          Delta Eig. =     0.0000817845 eV 
 
                                              current damping :  0.050
 ITERATION  ENERGY          1e-ENERGY        2e-ENERGY     RMS[dD(SAO)]   TOL
 368  -1399.0849754799    -3994.8954659     1656.1503440    0.413D-06 0.142D-11
          Norm of current diis error: 0.46392E-03
          max. resid. norm for Fia-block=  1.581D-04 for orbital     46a    beta 
          max. resid. fock norm         =  1.583D-04 for orbital     46a    beta 
          Delta Eig. =     0.0000760091 eV 
 density matrices became linear dependent...
 subr. ddmat can not establish optimal linear combination of delta densities !
 next fock matrix will be calculated from scratch !
 
                                              current damping :  0.050
 ITERATION  ENERGY          1e-ENERGY        2e-ENERGY     RMS[dD(SAO)]   TOL
 369  -1399.0849755992    -3994.8954578     1656.1503359    0.410D-06 0.497D-11
          Norm of current diis error: 0.46331E-03
          max. resid. norm for Fia-block=  1.566D-04 for orbital     46a    beta 
          max. resid. fock norm         =  1.568D-04 for orbital     46a    beta 
          Delta Eig. =     0.0000816213 eV 
 
                                              current damping :  0.100
 ITERATION  ENERGY          1e-ENERGY        2e-ENERGY     RMS[dD(SAO)]   TOL
 370  -1399.0849757253    -3994.8954579     1656.1503359    0.461D-06 0.315D-11
          Norm of current diis error: 0.46274E-03
          max. resid. norm for Fia-block=  1.545D-04 for orbital     46a    beta 
          max. resid. fock norm         =  1.546D-04 for orbital     46a    beta 
 mo-orthogonalization: Cholesky decomposition
          Delta Eig. =     0.0000698264 eV 
 
                                              current damping :  0.150
 ITERATION  ENERGY          1e-ENERGY        2e-ENERGY     RMS[dD(SAO)]   TOL
 371  -1399.0849758407    -3994.8954489     1656.1503267    0.397D-06 0.216D-11
          Norm of current diis error: 0.46224E-03
          max. resid. norm for Fia-block=  1.515D-04 for orbital     46a    beta 
          max. resid. fock norm         =  1.517D-04 for orbital     46a    beta 
          Delta Eig. =     0.0000729011 eV 
 
                                              current damping :  0.200
 ITERATION  ENERGY          1e-ENERGY        2e-ENERGY     RMS[dD(SAO)]   TOL
 372  -1399.0849759511    -3994.8954501     1656.1503278    0.360D-06 0.169D-11
          Norm of current diis error: 0.46179E-03
          max. resid. norm for Fia-block=  1.480D-04 for orbital     46a    beta 
          max. resid. fock norm         =  1.482D-04 for orbital     46a    beta 
          Delta Eig. =     0.0000611286 eV 
 
                                              current damping :  0.250
 ITERATION  ENERGY          1e-ENERGY        2e-ENERGY     RMS[dD(SAO)]   TOL
 373  -1399.0849760521    -3994.8954420     1656.1503196    0.337D-06 0.144D-11
          Norm of current diis error: 0.46140E-03
          max. resid. norm for Fia-block=  1.445D-04 for orbital     46a    beta 
          max. resid. fock norm         =  1.447D-04 for orbital     46a    beta 
          Delta Eig. =     0.0000635012 eV 
 
                                              current damping :  0.300
 ITERATION  ENERGY          1e-ENERGY        2e-ENERGY     RMS[dD(SAO)]   TOL
 374  -1399.0849761513    -3994.8954425     1656.1503200    0.324D-06 0.142D-11
          Norm of current diis error: 0.46104E-03
          max. resid. norm for Fia-block=  1.414D-04 for orbital     46a    beta 
          max. resid. fock norm         =  1.416D-04 for orbital     46a    beta 
          Delta Eig. =     0.0000547913 eV 
 
                                              current damping :  0.350
 ITERATION  ENERGY          1e-ENERGY        2e-ENERGY     RMS[dD(SAO)]   TOL
 375  -1399.0849762420    -3994.8954366     1656.1503140    0.297D-06 0.142D-11
          Norm of current diis error: 0.46070E-03
          max. resid. norm for Fia-block=  1.390D-04 for orbital     46a    beta 
          max. resid. fock norm         =  1.392D-04 for orbital     46a    beta 
 mo-orthogonalization: Cholesky decomposition
          Delta Eig. =     0.0000554772 eV 
 
                                              current damping :  0.200
 ITERATION  ENERGY          1e-ENERGY        2e-ENERGY     RMS[dD(SAO)]   TOL
 376  -1399.0849763229    -3994.8954356     1656.1503129    0.311D-06 0.142D-11
          Norm of current diis error: 0.46037E-03
          max. resid. norm for Fia-block=  1.374D-04 for orbital     46a    beta 
          max. resid. fock norm         =  1.375D-04 for orbital     46a    beta 
          Delta Eig. =     0.0000589722 eV 
 
                                              current damping :  0.050
 ITERATION  ENERGY          1e-ENERGY        2e-ENERGY     RMS[dD(SAO)]   TOL
 377  -1399.0849764215    -3994.8954309     1656.1503082    0.328D-06 0.141D-11
          Norm of current diis error: 0.45998E-03
          max. resid. norm for Fia-block=  1.375D-04 for orbital     46a    beta 
          max. resid. fock norm         =  1.376D-04 for orbital     46a    beta 
          Delta Eig. =     0.0000697422 eV 
 
                                              current damping :  0.050
 ITERATION  ENERGY          1e-ENERGY        2e-ENERGY     RMS[dD(SAO)]   TOL
 378  -1399.0849765325    -3994.8954286     1656.1503057    0.368D-06 0.142D-11
          Norm of current diis error: 0.45947E-03
          max. resid. norm for Fia-block=  1.400D-04 for orbital     46a    beta 
          max. resid. fock norm         =  1.401D-04 for orbital     46a    beta 
          Delta Eig. =     0.0000689504 eV 
 
                                              current damping :  0.050
 ITERATION  ENERGY          1e-ENERGY        2e-ENERGY     RMS[dD(SAO)]   TOL
 379  -1399.0849766394    -3994.8954234     1656.1503004    0.366D-06 0.142D-11
          Norm of current diis error: 0.45885E-03
          max. resid. norm for Fia-block=  1.440D-04 for orbital     46a    beta 
          max. resid. fock norm         =  1.441D-04 for orbital     46a    beta 
          Delta Eig. =     0.0000734123 eV 
 
                                              current damping :  0.050
 ITERATION  ENERGY          1e-ENERGY        2e-ENERGY     RMS[dD(SAO)]   TOL
 380  -1399.0849767533    -3994.8954212     1656.1502981    0.374D-06 0.142D-11
          Norm of current diis error: 0.45816E-03
          max. resid. norm for Fia-block=  1.486D-04 for orbital     46a    beta 
          max. resid. fock norm         =  1.487D-04 for orbital     46a    beta 
 mo-orthogonalization: Cholesky decomposition
          Delta Eig. =     0.0000730258 eV 
 
                                              current damping :  0.050
 ITERATION  ENERGY          1e-ENERGY        2e-ENERGY     RMS[dD(SAO)]   TOL
 381  -1399.0849768694    -3994.8954154     1656.1502922    0.385D-06 0.142D-11
          Norm of current diis error: 0.45743E-03
          max. resid. norm for Fia-block=  1.526D-04 for orbital     46a    beta 
          max. resid. fock norm         =  1.527D-04 for orbital     46a    beta 
          Delta Eig. =     0.0000780608 eV 
 
                                              current damping :  0.050
 ITERATION  ENERGY          1e-ENERGY        2e-ENERGY     RMS[dD(SAO)]   TOL
 382  -1399.0849769905    -3994.8954136     1656.1502903    0.395D-06 0.142D-11
          Norm of current diis error: 0.45669E-03
          max. resid. norm for Fia-block=  1.551D-04 for orbital     46a    beta 
          max. resid. fock norm         =  1.553D-04 for orbital     46a    beta 
          Delta Eig. =     0.0000757136 eV 
 
                                              current damping :  0.050
 ITERATION  ENERGY          1e-ENERGY        2e-ENERGY     RMS[dD(SAO)]   TOL
 383  -1399.0849771121    -3994.8954070     1656.1502836    0.401D-06 0.141D-11
          Norm of current diis error: 0.45599E-03
          max. resid. norm for Fia-block=  1.561D-04 for orbital     46a    beta 
          max. resid. fock norm         =  1.563D-04 for orbital     46a    beta 
          Delta Eig. =     0.0000803313 eV 
 
                                              current damping :  0.050
 ITERATION  ENERGY          1e-ENERGY        2e-ENERGY     RMS[dD(SAO)]   TOL
 384  -1399.0849772360    -3994.8954058     1656.1502823    0.404D-06 0.142D-11
          Norm of current diis error: 0.45533E-03
          max. resid. norm for Fia-block=  1.557D-04 for orbital     46a    beta 
          max. resid. fock norm         =  1.559D-04 for orbital     46a    beta 
          Delta Eig. =     0.0000752608 eV 
 
                                              current damping :  0.050
 ITERATION  ENERGY          1e-ENERGY        2e-ENERGY     RMS[dD(SAO)]   TOL
 385  -1399.0849773575    -3994.8953983     1656.1502747    0.403D-06 0.141D-11
          Norm of current diis error: 0.45473E-03
          max. resid. norm for Fia-block=  1.541D-04 for orbital     46a    beta 
          max. resid. fock norm         =  1.542D-04 for orbital     46a    beta 
 mo-orthogonalization: Cholesky decomposition
          Delta Eig. =     0.0000800027 eV 
 density matrices became linear dependent...
 subr. ddmat can not establish optimal linear combination of delta densities !
 next fock matrix will be calculated from scratch !
 
                                              current damping :  0.050
 ITERATION  ENERGY          1e-ENERGY        2e-ENERGY     RMS[dD(SAO)]   TOL
 386  -1399.0849774644    -3994.8953982     1656.1502744    0.401D-06 0.497D-11
          Norm of current diis error: 0.45418E-03
          max. resid. norm for Fia-block=  1.518D-04 for orbital     46a    beta 
          max. resid. fock norm         =  1.519D-04 for orbital     46a    beta 
          Delta Eig. =     0.0000722608 eV 
 
                                              current damping :  0.050
 ITERATION  ENERGY          1e-ENERGY        2e-ENERGY     RMS[dD(SAO)]   TOL
 387  -1399.0849775849    -3994.8953898     1656.1502659    0.458D-06 0.315D-11
          Norm of current diis error: 0.45366E-03
          max. resid. norm for Fia-block=  1.494D-04 for orbital     46a    beta 
          max. resid. fock norm         =  1.496D-04 for orbital     46a    beta 
          Delta Eig. =     0.0000785924 eV 
 
                                              current damping :  0.100
 ITERATION  ENERGY          1e-ENERGY        2e-ENERGY     RMS[dD(SAO)]   TOL
 388  -1399.0849777013    -3994.8953912     1656.1502671    0.393D-06 0.219D-11
          Norm of current diis error: 0.45316E-03
          max. resid. norm for Fia-block=  1.474D-04 for orbital     46a    beta 
          max. resid. fock norm         =  1.476D-04 for orbital     46a    beta 
          Delta Eig. =     0.0000659019 eV 
 
                                              current damping :  0.150
 ITERATION  ENERGY          1e-ENERGY        2e-ENERGY     RMS[dD(SAO)]   TOL
 389  -1399.0849778132    -3994.8953818     1656.1502577    0.366D-06 0.173D-11
          Norm of current diis error: 0.45268E-03
          max. resid. norm for Fia-block=  1.454D-04 for orbital     46a    beta 
          max. resid. fock norm         =  1.456D-04 for orbital     46a    beta 
          Delta Eig. =     0.0000707239 eV 
 
                                              current damping :  0.200
 ITERATION  ENERGY          1e-ENERGY        2e-ENERGY     RMS[dD(SAO)]   TOL
 390  -1399.0849779198    -3994.8953840     1656.1502598    0.347D-06 0.145D-11
          Norm of current diis error: 0.45222E-03
          max. resid. norm for Fia-block=  1.434D-04 for orbital     46a    beta 
          max. resid. fock norm         =  1.436D-04 for orbital     46a    beta 
 mo-orthogonalization: Cholesky decomposition
          Delta Eig. =     0.0000587385 eV 
 
                                              current damping :  0.250
 ITERATION  ENERGY          1e-ENERGY        2e-ENERGY     RMS[dD(SAO)]   TOL
 391  -1399.0849780119    -3994.8953755     1656.1502512    0.336D-06 0.142D-11
          Norm of current diis error: 0.45180E-03
          max. resid. norm for Fia-block=  1.414D-04 for orbital     46a    beta 
          max. resid. fock norm         =  1.415D-04 for orbital     46a    beta 
          Delta Eig. =     0.0000626400 eV 
 
                                              current damping :  0.300
 ITERATION  ENERGY          1e-ENERGY        2e-ENERGY     RMS[dD(SAO)]   TOL
 392  -1399.0849781008    -3994.8953767     1656.1502523    0.311D-06 0.142D-11
          Norm of current diis error: 0.45140E-03
          max. resid. norm for Fia-block=  1.392D-04 for orbital     46a    beta 
          max. resid. fock norm         =  1.394D-04 for orbital     46a    beta 
          Delta Eig. =     0.0000536495 eV 
 
                                              current damping :  0.350
 ITERATION  ENERGY          1e-ENERGY        2e-ENERGY     RMS[dD(SAO)]   TOL
 393  -1399.0849781881    -3994.8953706     1656.1502460    0.304D-06 0.141D-11
          Norm of current diis error: 0.45103E-03
          max. resid. norm for Fia-block=  1.373D-04 for orbital     46a    beta 
          max. resid. fock norm         =  1.374D-04 for orbital     46a    beta 
          Delta Eig. =     0.0000550508 eV 
 
                                              current damping :  0.200
 ITERATION  ENERGY          1e-ENERGY        2e-ENERGY     RMS[dD(SAO)]   TOL
 394  -1399.0849782715    -3994.8953700     1656.1502454    0.282D-06 0.142D-11
          Norm of current diis error: 0.45068E-03
          max. resid. norm for Fia-block=  1.356D-04 for orbital     46a    beta 
          max. resid. fock norm         =  1.357D-04 for orbital     46a    beta 
          Delta Eig. =     0.0000580541 eV 
 
                                              current damping :  0.050
 ITERATION  ENERGY          1e-ENERGY        2e-ENERGY     RMS[dD(SAO)]   TOL
 395  -1399.0849783637    -3994.8953653     1656.1502407    0.309D-06 0.142D-11
          Norm of current diis error: 0.45028E-03
          max. resid. norm for Fia-block=  1.354D-04 for orbital     46a    beta 
          max. resid. fock norm         =  1.356D-04 for orbital     46a    beta 
 mo-orthogonalization: Cholesky decomposition
          Delta Eig. =     0.0000689141 eV 
 
                                              current damping :  0.050
 ITERATION  ENERGY          1e-ENERGY        2e-ENERGY     RMS[dD(SAO)]   TOL
 396  -1399.0849784673    -3994.8953634     1656.1502386    0.352D-06 0.142D-11
          Norm of current diis error: 0.44978E-03
          max. resid. norm for Fia-block=  1.376D-04 for orbital     46a    beta 
          max. resid. fock norm         =  1.377D-04 for orbital     46a    beta 
          Delta Eig. =     0.0000676140 eV 
 
                                              current damping :  0.050
 ITERATION  ENERGY          1e-ENERGY        2e-ENERGY     RMS[dD(SAO)]   TOL
 397  -1399.0849785743    -3994.8953581     1656.1502332    0.365D-06 0.141D-11
          Norm of current diis error: 0.44918E-03
          max. resid. norm for Fia-block=  1.411D-04 for orbital     46a    beta 
          max. resid. fock norm         =  1.413D-04 for orbital     46a    beta 
          Delta Eig. =     0.0000721471 eV 
 
                                              current damping :  0.050
 ITERATION  ENERGY          1e-ENERGY        2e-ENERGY     RMS[dD(SAO)]   TOL
 398  -1399.0849786833    -3994.8953563     1656.1502313    0.372D-06 0.142D-11
          Norm of current diis error: 0.44852E-03
          max. resid. norm for Fia-block=  1.453D-04 for orbital     46a    beta 
          max. resid. fock norm         =  1.455D-04 for orbital     46a    beta 
          Delta Eig. =     0.0000712233 eV 
 
                                              current damping :  0.050
 ITERATION  ENERGY          1e-ENERGY        2e-ENERGY     RMS[dD(SAO)]   TOL
 399  -1399.0849787952    -3994.8953503     1656.1502252    0.386D-06 0.142D-11
          Norm of current diis error: 0.44781E-03
          max. resid. norm for Fia-block=  1.490D-04 for orbital     46a    beta 
          max. resid. fock norm         =  1.492D-04 for orbital     46a    beta 
          Delta Eig. =     0.0000765936 eV 
 
                                              current damping :  0.050
 ITERATION  ENERGY          1e-ENERGY        2e-ENERGY     RMS[dD(SAO)]   TOL
 400  -1399.0849789087    -3994.8953488     1656.1502236    0.393D-06 0.142D-11
          Norm of current diis error: 0.44709E-03
          max. resid. norm for Fia-block=  1.514D-04 for orbital     46a    beta 
          max. resid. fock norm         =  1.516D-04 for orbital     46a    beta 
 mo-orthogonalization: Cholesky decomposition
          Delta Eig. =     0.0000736791 eV 
 
                                              current damping :  0.050
 ITERATION  ENERGY          1e-ENERGY        2e-ENERGY     RMS[dD(SAO)]   TOL
 401  -1399.0849790238    -3994.8953420     1656.1502166    0.395D-06 0.141D-11
          Norm of current diis error: 0.44640E-03
          max. resid. norm for Fia-block=  1.525D-04 for orbital     46a    beta 
          max. resid. fock norm         =  1.526D-04 for orbital     46a    beta 
          Delta Eig. =     0.0000788873 eV 
 
                                              current damping :  0.050
 ITERATION  ENERGY          1e-ENERGY        2e-ENERGY     RMS[dD(SAO)]   TOL
 402  -1399.0849791400    -3994.8953413     1656.1502158    0.395D-06 0.142D-11
          Norm of current diis error: 0.44576E-03
          max. resid. norm for Fia-block=  1.521D-04 for orbital     46a    beta 
          max. resid. fock norm         =  1.523D-04 for orbital     46a    beta 
          Delta Eig. =     0.0000731568 eV 
 
                                              current damping :  0.050
 ITERATION  ENERGY          1e-ENERGY        2e-ENERGY     RMS[dD(SAO)]   TOL
 403  -1399.0849792561    -3994.8953334     1656.1502078    0.392D-06 0.142D-11
          Norm of current diis error: 0.44516E-03
          max. resid. norm for Fia-block=  1.507D-04 for orbital     46a    beta 
          max. resid. fock norm         =  1.509D-04 for orbital     46a    beta 
          Delta Eig. =     0.0000788133 eV 
 density matrices became linear dependent...
 subr. ddmat can not establish optimal linear combination of delta densities !
 next fock matrix will be calculated from scratch !
 
                                              current damping :  0.100
 ITERATION  ENERGY          1e-ENERGY        2e-ENERGY     RMS[dD(SAO)]   TOL
 404  -1399.0849793647    -3994.8953339     1656.1502083    0.389D-06 0.497D-11
          Norm of current diis error: 0.44461E-03
          max. resid. norm for Fia-block=  1.486D-04 for orbital     46a    beta 
          max. resid. fock norm         =  1.488D-04 for orbital     46a    beta 
          Delta Eig. =     0.0000671092 eV 
 
                                              current damping :  0.150
 ITERATION  ENERGY          1e-ENERGY        2e-ENERGY     RMS[dD(SAO)]   TOL
 405  -1399.0849794744    -3994.8953253     1656.1501995    0.380D-06 0.315D-11
          Norm of current diis error: 0.44412E-03
          max. resid. norm for Fia-block=  1.457D-04 for orbital     46a    beta 
          max. resid. fock norm         =  1.459D-04 for orbital     46a    beta 
 mo-orthogonalization: Cholesky decomposition
          Delta Eig. =     0.0000702991 eV 
 
                                              current damping :  0.200
 ITERATION  ENERGY          1e-ENERGY        2e-ENERGY     RMS[dD(SAO)]   TOL
 406  -1399.0849795755    -3994.8953267     1656.1502008    0.361D-06 0.213D-11
          Norm of current diis error: 0.44369E-03
          max. resid. norm for Fia-block=  1.423D-04 for orbital     46a    beta 
          max. resid. fock norm         =  1.425D-04 for orbital     46a    beta 
          Delta Eig. =     0.0000587162 eV 
 
                                              current damping :  0.250
 ITERATION  ENERGY          1e-ENERGY        2e-ENERGY     RMS[dD(SAO)]   TOL
 407  -1399.0849796688    -3994.8953188     1656.1501928    0.339D-06 0.168D-11
          Norm of current diis error: 0.44330E-03
          max. resid. norm for Fia-block=  1.389D-04 for orbital     46a    beta 
          max. resid. fock norm         =  1.390D-04 for orbital     46a    beta 
          Delta Eig. =     0.0000612069 eV 
 
                                              current damping :  0.300
 ITERATION  ENERGY          1e-ENERGY        2e-ENERGY     RMS[dD(SAO)]   TOL
 408  -1399.0849797547    -3994.8953195     1656.1501934    0.312D-06 0.145D-11
          Norm of current diis error: 0.44296E-03
          max. resid. norm for Fia-block=  1.358D-04 for orbital     46a    beta 
          max. resid. fock norm         =  1.359D-04 for orbital     46a    beta 
          Delta Eig. =     0.0000526252 eV 
 
                                              current damping :  0.350
 ITERATION  ENERGY          1e-ENERGY        2e-ENERGY     RMS[dD(SAO)]   TOL
 409  -1399.0849798391    -3994.8953136     1656.1501875    0.292D-06 0.141D-11
          Norm of current diis error: 0.44263E-03
          max. resid. norm for Fia-block=  1.334D-04 for orbital     46a    beta 
          max. resid. fock norm         =  1.336D-04 for orbital     46a    beta 
          Delta Eig. =     0.0000533859 eV 
 
                                              current damping :  0.200
 ITERATION  ENERGY          1e-ENERGY        2e-ENERGY     RMS[dD(SAO)]   TOL
 410  -1399.0849799220    -3994.8953128     1656.1501865    0.278D-06 0.141D-11
          Norm of current diis error: 0.44231E-03
          max. resid. norm for Fia-block=  1.318D-04 for orbital     46a    beta 
          max. resid. fock norm         =  1.319D-04 for orbital     46a    beta 
 mo-orthogonalization: Cholesky decomposition
          Delta Eig. =     0.0000566013 eV 
 
                                              current damping :  0.050
 ITERATION  ENERGY          1e-ENERGY        2e-ENERGY     RMS[dD(SAO)]   TOL
 411  -1399.0849800106    -3994.8953083     1656.1501820    0.350D-06 0.142D-11
          Norm of current diis error: 0.44193E-03
          max. resid. norm for Fia-block=  1.319D-04 for orbital     46a    beta 
          max. resid. fock norm         =  1.320D-04 for orbital     46a    beta 
          Delta Eig. =     0.0000670402 eV 
 
                                              current damping :  0.050
 ITERATION  ENERGY          1e-ENERGY        2e-ENERGY     RMS[dD(SAO)]   TOL
 412  -1399.0849801095    -3994.8953062     1656.1501797    0.370D-06 0.141D-11
          Norm of current diis error: 0.44143E-03
          max. resid. norm for Fia-block=  1.344D-04 for orbital     46a    beta 
          max. resid. fock norm         =  1.345D-04 for orbital     46a    beta 
          Delta Eig. =     0.0000662440 eV 
 
                                              current damping :  0.050
 ITERATION  ENERGY          1e-ENERGY        2e-ENERGY     RMS[dD(SAO)]   TOL
 413  -1399.0849802114    -3994.8953011     1656.1501746    0.363D-06 0.142D-11
          Norm of current diis error: 0.44084E-03
          max. resid. norm for Fia-block=  1.382D-04 for orbital     46a    beta 
          max. resid. fock norm         =  1.384D-04 for orbital     46a    beta 
          Delta Eig. =     0.0000706202 eV 
 
                                              current damping :  0.050
 ITERATION  ENERGY          1e-ENERGY        2e-ENERGY     RMS[dD(SAO)]   TOL
 414  -1399.0849803144    -3994.8952992     1656.1501725    0.360D-06 0.142D-11
          Norm of current diis error: 0.44017E-03
          max. resid. norm for Fia-block=  1.427D-04 for orbital     46a    beta 
          max. resid. fock norm         =  1.429D-04 for orbital     46a    beta 
          Delta Eig. =     0.0000702048 eV 
 
                                              current damping :  0.050
 ITERATION  ENERGY          1e-ENERGY        2e-ENERGY     RMS[dD(SAO)]   TOL
 415  -1399.0849804213    -3994.8952936     1656.1501669    0.372D-06 0.142D-11
          Norm of current diis error: 0.43945E-03
          max. resid. norm for Fia-block=  1.466D-04 for orbital     46a    beta 
          max. resid. fock norm         =  1.468D-04 for orbital     46a    beta 
 mo-orthogonalization: Cholesky decomposition
          Delta Eig. =     0.0000751993 eV 
 
                                              current damping :  0.050
 ITERATION  ENERGY          1e-ENERGY        2e-ENERGY     RMS[dD(SAO)]   TOL
 416  -1399.0849805308    -3994.8952921     1656.1501652    0.399D-06 0.142D-11
          Norm of current diis error: 0.43873E-03
          max. resid. norm for Fia-block=  1.491D-04 for orbital     46a    beta 
          max. resid. fock norm         =  1.493D-04 for orbital     46a    beta 
          Delta Eig. =     0.0000728207 eV 
 
                                              current damping :  0.050
 ITERATION  ENERGY          1e-ENERGY        2e-ENERGY     RMS[dD(SAO)]   TOL
 417  -1399.0849806420    -3994.8952858     1656.1501588    0.390D-06 0.142D-11
          Norm of current diis error: 0.43805E-03
          max. resid. norm for Fia-block=  1.502D-04 for orbital     46a    beta 
          max. resid. fock norm         =  1.503D-04 for orbital     46a    beta 
          Delta Eig. =     0.0000774702 eV 
 
                                              current damping :  0.050
 ITERATION  ENERGY          1e-ENERGY        2e-ENERGY     RMS[dD(SAO)]   TOL
 418  -1399.0849807540    -3994.8952848     1656.1501578    0.392D-06 0.142D-11
          Norm of current diis error: 0.43741E-03
          max. resid. norm for Fia-block=  1.498D-04 for orbital     46a    beta 
          max. resid. fock norm         =  1.500D-04 for orbital     46a    beta 
          Delta Eig. =     0.0000723884 eV 
 
                                              current damping :  0.050
 ITERATION  ENERGY          1e-ENERGY        2e-ENERGY     RMS[dD(SAO)]   TOL
 419  -1399.0849808656    -3994.8952776     1656.1501504    0.390D-06 0.141D-11
          Norm of current diis error: 0.43682E-03
          max. resid. norm for Fia-block=  1.482D-04 for orbital     46a    beta 
          max. resid. fock norm         =  1.484D-04 for orbital     46a    beta 
          Delta Eig. =     0.0000771976 eV 
 
                                              current damping :  0.100
 ITERATION  ENERGY          1e-ENERGY        2e-ENERGY     RMS[dD(SAO)]   TOL
 420  -1399.0849809769    -3994.8952777     1656.1501504    0.387D-06 0.142D-11
          Norm of current diis error: 0.43628E-03
          max. resid. norm for Fia-block=  1.460D-04 for orbital     46a    beta 
          max. resid. fock norm         =  1.462D-04 for orbital     46a    beta 
 mo-orthogonalization: Cholesky decomposition
          Delta Eig. =     0.0000663725 eV 
 
                                              current damping :  0.150
 ITERATION  ENERGY          1e-ENERGY        2e-ENERGY     RMS[dD(SAO)]   TOL
 421  -1399.0849810807    -3994.8952697     1656.1501423    0.361D-06 0.142D-11
          Norm of current diis error: 0.43580E-03
          max. resid. norm for Fia-block=  1.430D-04 for orbital     46a    beta 
          max. resid. fock norm         =  1.431D-04 for orbital     46a    beta 
          Delta Eig. =     0.0000686545 eV 
 density matrices became linear dependent...
 subr. ddmat can not establish optimal linear combination of delta densities !
 next fock matrix will be calculated from scratch !
 
                                              current damping :  0.200
 ITERATION  ENERGY          1e-ENERGY        2e-ENERGY     RMS[dD(SAO)]   TOL
 422  -1399.0849811773    -3994.8952708     1656.1501433    0.346D-06 0.497D-11
          Norm of current diis error: 0.43538E-03
          max. resid. norm for Fia-block=  1.395D-04 for orbital     46a    beta 
          max. resid. fock norm         =  1.396D-04 for orbital     46a    beta 
          Delta Eig. =     0.0000578932 eV 
 
                                              current damping :  0.250
 ITERATION  ENERGY          1e-ENERGY        2e-ENERGY     RMS[dD(SAO)]   TOL
 423  -1399.0849812714    -3994.8952637     1656.1501361    0.370D-06 0.315D-11
          Norm of current diis error: 0.43500E-03
          max. resid. norm for Fia-block=  1.360D-04 for orbital     46a    beta 
          max. resid. fock norm         =  1.362D-04 for orbital     46a    beta 
          Delta Eig. =     0.0000596716 eV 
 
                                              current damping :  0.300
 ITERATION  ENERGY          1e-ENERGY        2e-ENERGY     RMS[dD(SAO)]   TOL
 424  -1399.0849813570    -3994.8952642     1656.1501365    0.311D-06 0.219D-11
          Norm of current diis error: 0.43466E-03
          max. resid. norm for Fia-block=  1.330D-04 for orbital     46a    beta 
          max. resid. fock norm         =  1.332D-04 for orbital     46a    beta 
          Delta Eig. =     0.0000517663 eV 
 
                                              current damping :  0.350
 ITERATION  ENERGY          1e-ENERGY        2e-ENERGY     RMS[dD(SAO)]   TOL
 425  -1399.0849814376    -3994.8952589     1656.1501312    0.284D-06 0.172D-11
          Norm of current diis error: 0.43434E-03
          max. resid. norm for Fia-block=  1.307D-04 for orbital     46a    beta 
          max. resid. fock norm         =  1.309D-04 for orbital     46a    beta 
 mo-orthogonalization: Cholesky decomposition
          Delta Eig. =     0.0000521678 eV 
 
                                              current damping :  0.200
 ITERATION  ENERGY          1e-ENERGY        2e-ENERGY     RMS[dD(SAO)]   TOL
 426  -1399.0849815138    -3994.8952581     1656.1501302    0.266D-06 0.144D-11
          Norm of current diis error: 0.43403E-03
          max. resid. norm for Fia-block=  1.292D-04 for orbital     46a    beta 
          max. resid. fock norm         =  1.293D-04 for orbital     46a    beta 
          Delta Eig. =     0.0000556129 eV 
 
                                              current damping :  0.050
 ITERATION  ENERGY          1e-ENERGY        2e-ENERGY     RMS[dD(SAO)]   TOL
 427  -1399.0849815968    -3994.8952540     1656.1501260    0.298D-06 0.142D-11
          Norm of current diis error: 0.43365E-03
          max. resid. norm for Fia-block=  1.293D-04 for orbital     46a    beta 
          max. resid. fock norm         =  1.295D-04 for orbital     46a    beta 
          Delta Eig. =     0.0000656639 eV 
 
                                              current damping :  0.050
 ITERATION  ENERGY          1e-ENERGY        2e-ENERGY     RMS[dD(SAO)]   TOL
 428  -1399.0849816939    -3994.8952518     1656.1501238    0.337D-06 0.142D-11
          Norm of current diis error: 0.43316E-03
          max. resid. norm for Fia-block=  1.318D-04 for orbital     46a    beta 
          max. resid. fock norm         =  1.320D-04 for orbital     46a    beta 
          Delta Eig. =     0.0000651485 eV 
 
                                              current damping :  0.050
 ITERATION  ENERGY          1e-ENERGY        2e-ENERGY     RMS[dD(SAO)]   TOL
 429  -1399.0849817955    -3994.8952472     1656.1501191    0.349D-06 0.142D-11
          Norm of current diis error: 0.43257E-03
          max. resid. norm for Fia-block=  1.357D-04 for orbital     46a    beta 
          max. resid. fock norm         =  1.358D-04 for orbital     46a    beta 
          Delta Eig. =     0.0000692172 eV 
 
                                              current damping :  0.050
 ITERATION  ENERGY          1e-ENERGY        2e-ENERGY     RMS[dD(SAO)]   TOL
 430  -1399.0849818983    -3994.8952452     1656.1501170    0.353D-06 0.142D-11
          Norm of current diis error: 0.43190E-03
          max. resid. norm for Fia-block=  1.401D-04 for orbital     46a    beta 
          max. resid. fock norm         =  1.402D-04 for orbital     46a    beta 
 mo-orthogonalization: Cholesky decomposition
          Delta Eig. =     0.0000691118 eV 
 
                                              current damping :  0.050
 ITERATION  ENERGY          1e-ENERGY        2e-ENERGY     RMS[dD(SAO)]   TOL
 431  -1399.0849819997    -3994.8952400     1656.1501117    0.366D-06 0.142D-11
          Norm of current diis error: 0.43120E-03
          max. resid. norm for Fia-block=  1.439D-04 for orbital     46a    beta 
          max. resid. fock norm         =  1.441D-04 for orbital     46a    beta 
          Delta Eig. =     0.0000736942 eV 
 
                                              current damping :  0.050
 ITERATION  ENERGY          1e-ENERGY        2e-ENERGY     RMS[dD(SAO)]   TOL
 432  -1399.0849821042    -3994.8952382     1656.1501098    0.376D-06 0.141D-11
          Norm of current diis error: 0.43049E-03
          max. resid. norm for Fia-block=  1.464D-04 for orbital     46a    beta 
          max. resid. fock norm         =  1.466D-04 for orbital     46a    beta 
          Delta Eig. =     0.0000717746 eV 
 
                                              current damping :  0.050
 ITERATION  ENERGY          1e-ENERGY        2e-ENERGY     RMS[dD(SAO)]   TOL
 433  -1399.0849822126    -3994.8952323     1656.1501038    0.379D-06 0.142D-11
          Norm of current diis error: 0.42981E-03
          max. resid. norm for Fia-block=  1.474D-04 for orbital     46a    beta 
          max. resid. fock norm         =  1.476D-04 for orbital     46a    beta 
          Delta Eig. =     0.0000758747 eV 
 
                                              current damping :  0.050
 ITERATION  ENERGY          1e-ENERGY        2e-ENERGY     RMS[dD(SAO)]   TOL
 434  -1399.0849823218    -3994.8952311     1656.1501024    0.383D-06 0.141D-11
          Norm of current diis error: 0.42918E-03
          max. resid. norm for Fia-block=  1.471D-04 for orbital     46a    beta 
          max. resid. fock norm         =  1.472D-04 for orbital     46a    beta 
          Delta Eig. =     0.0000713928 eV 
 
                                              current damping :  0.050
 ITERATION  ENERGY          1e-ENERGY        2e-ENERGY     RMS[dD(SAO)]   TOL
 435  -1399.0849824284    -3994.8952243     1656.1500956    0.382D-06 0.142D-11
          Norm of current diis error: 0.42860E-03
          max. resid. norm for Fia-block=  1.455D-04 for orbital     46a    beta 
          max. resid. fock norm         =  1.457D-04 for orbital     46a    beta 
 mo-orthogonalization: Cholesky decomposition
          Delta Eig. =     0.0000755277 eV 
 
                                              current damping :  0.050
 ITERATION  ENERGY          1e-ENERGY        2e-ENERGY     RMS[dD(SAO)]   TOL
 436  -1399.0849825343    -3994.8952240     1656.1500952    0.380D-06 0.142D-11
          Norm of current diis error: 0.42807E-03
          max. resid. norm for Fia-block=  1.433D-04 for orbital     46a    beta 
          max. resid. fock norm         =  1.435D-04 for orbital     46a    beta 
          Delta Eig. =     0.0000686702 eV 
 
                                              current damping :  0.050
 ITERATION  ENERGY          1e-ENERGY        2e-ENERGY     RMS[dD(SAO)]   TOL
 437  -1399.0849826398    -3994.8952162     1656.1500873    0.377D-06 0.142D-11
          Norm of current diis error: 0.42757E-03
          max. resid. norm for Fia-block=  1.410D-04 for orbital     46a    beta 
          max. resid. fock norm         =  1.411D-04 for orbital     46a    beta 
          Delta Eig. =     0.0000741380 eV 
 density matrices became linear dependent...
 subr. ddmat can not establish optimal linear combination of delta densities !
 next fock matrix will be calculated from scratch !
 
                                              current damping :  0.100
 ITERATION  ENERGY          1e-ENERGY        2e-ENERGY     RMS[dD(SAO)]   TOL
 438  -1399.0849827367    -3994.8952172     1656.1500881    0.367D-06 0.497D-11
          Norm of current diis error: 0.42709E-03
          max. resid. norm for Fia-block=  1.390D-04 for orbital     46a    beta 
          max. resid. fock norm         =  1.392D-04 for orbital     46a    beta 
          Delta Eig. =     0.0000625215 eV 
 
                                              current damping :  0.150
 ITERATION  ENERGY          1e-ENERGY        2e-ENERGY     RMS[dD(SAO)]   TOL
 439  -1399.0849828360    -3994.8952086     1656.1500795    0.356D-06 0.315D-11
          Norm of current diis error: 0.42663E-03
          max. resid. norm for Fia-block=  1.371D-04 for orbital     46a    beta 
          max. resid. fock norm         =  1.373D-04 for orbital     46a    beta 
          Delta Eig. =     0.0000665786 eV 
 
                                              current damping :  0.200
 ITERATION  ENERGY          1e-ENERGY        2e-ENERGY     RMS[dD(SAO)]   TOL
 440  -1399.0849829272    -3994.8952104     1656.1500811    0.341D-06 0.213D-11
          Norm of current diis error: 0.42620E-03
          max. resid. norm for Fia-block=  1.351D-04 for orbital     46a    beta 
          max. resid. fock norm         =  1.353D-04 for orbital     46a    beta 
 mo-orthogonalization: Cholesky decomposition
          Delta Eig. =     0.0000556911 eV 
 
                                              current damping :  0.250
 ITERATION  ENERGY          1e-ENERGY        2e-ENERGY     RMS[dD(SAO)]   TOL
 441  -1399.0849830116    -3994.8952026     1656.1500732    0.324D-06 0.167D-11
          Norm of current diis error: 0.42579E-03
          max. resid. norm for Fia-block=  1.331D-04 for orbital     46a    beta 
          max. resid. fock norm         =  1.333D-04 for orbital     46a    beta 
          Delta Eig. =     0.0000589687 eV 
 
                                              current damping :  0.300
 ITERATION  ENERGY          1e-ENERGY        2e-ENERGY     RMS[dD(SAO)]   TOL
 442  -1399.0849830900    -3994.8952034     1656.1500740    0.298D-06 0.144D-11
          Norm of current diis error: 0.42541E-03
          max. resid. norm for Fia-block=  1.311D-04 for orbital     46a    beta 
          max. resid. fock norm         =  1.312D-04 for orbital     46a    beta 
          Delta Eig. =     0.0000507933 eV 
 
                                              current damping :  0.350
 ITERATION  ENERGY          1e-ENERGY        2e-ENERGY     RMS[dD(SAO)]   TOL
 443  -1399.0849831707    -3994.8951977     1656.1500682    0.279D-06 0.142D-11
          Norm of current diis error: 0.42506E-03
          max. resid. norm for Fia-block=  1.292D-04 for orbital     46a    beta 
          max. resid. fock norm         =  1.293D-04 for orbital     46a    beta 
          Delta Eig. =     0.0000518713 eV 
 
                                              current damping :  0.200
 ITERATION  ENERGY          1e-ENERGY        2e-ENERGY     RMS[dD(SAO)]   TOL
 444  -1399.0849832497    -3994.8951970     1656.1500674    0.274D-06 0.142D-11
          Norm of current diis error: 0.42472E-03
          max. resid. norm for Fia-block=  1.276D-04 for orbital     46a    beta 
          max. resid. fock norm         =  1.277D-04 for orbital     46a    beta 
          Delta Eig. =     0.0000548343 eV 
 
                                              current damping :  0.050
 ITERATION  ENERGY          1e-ENERGY        2e-ENERGY     RMS[dD(SAO)]   TOL
 445  -1399.0849833327    -3994.8951926     1656.1500629    0.323D-06 0.142D-11
          Norm of current diis error: 0.42434E-03
          max. resid. norm for Fia-block=  1.274D-04 for orbital     46a    beta 
          max. resid. fock norm         =  1.276D-04 for orbital     46a    beta 
 mo-orthogonalization: Cholesky decomposition
[...]
     |    46 -    50 |     0.9688    0.9668    0.9638    0.9629    0.9618 |
     |    51 -    55 |     0.9611    0.9599    0.9567    0.0451    0.0333 |
     |    56 -    60 |     0.0323    0.0278    0.0274    0.0270    0.0253 |
     |    61 -    65 |     0.0240    0.0239    0.0212    0.0190    0.0173 |
     |    66 -    70 |     0.0159    0.0140    0.0117    0.0105    0.0094 |
     |    71 -    75 |     0.0092    0.0087    0.0082    0.0080    0.0079 |
     |    76 -    80 |     0.0076    0.0075    0.0068    0.0065    0.0063 |
     |    81 -    85 |     0.0061    0.0059    0.0057    0.0055    0.0055 |
     |    86 -    90 |     0.0051    0.0050    0.0048    0.0047    0.0047 |
     |    91 -    95 |     0.0046    0.0045    0.0044    0.0043    0.0043 |
     |    96 -   100 |     0.0042    0.0040    0.0039    0.0038    0.0038 |
     |   101 -   105 |     0.0037    0.0037    0.0037    0.0036    0.0035 |
     |   106 -   110 |     0.0033    0.0032    0.0032    0.0031    0.0030 |
     |   111 -   115 |     0.0029    0.0028    0.0028    0.0026    0.0026 |
     |   116 -   120 |     0.0025    0.0025    0.0024    0.0024    0.0023 |
     |   121 -   125 |     0.0023    0.0022    0.0021    0.0021    0.0020 |
     |   126 -   130 |     0.0020    0.0019    0.0018    0.0018    0.0018 |
     |   131 -   135 |     0.0017    0.0016    0.0016    0.0016    0.0014 |
     |   136 -   140 |     0.0014    0.0014    0.0013    0.0013    0.0013 |
     |   141 -   145 |     0.0012    0.0012    0.0011    0.0011    0.0011 |
     +---------------+----------------------------------------------------+
      natural orbitals with occ <   0.10E-02 are not shown

      Maximum change in occupation number:
        occupied (alpha) :    -4.11 % (   54 a    )
        virtual (alpha)  :     3.66 % (   55 a    )
        occupied (beta)  :    -4.33 % (   53 a    )
        virtual (beta)   :     4.51 % (   54 a    )
 
 WARNING: unphysical eigenvalue of NO     1a   (alpha) : occ=   1.2080052
 WARNING: unphysical eigenvalue of NO     2a   (alpha) : occ=   1.0070400
 WARNING: unphysical eigenvalue of NO     3a   (alpha) : occ=   1.0018827
 WARNING: unphysical eigenvalue of NO   552a   (alpha) : occ=  -0.0034098
 WARNING: unphysical eigenvalue of NO   553a   (alpha) : occ=  -0.0036462
 WARNING: unphysical eigenvalue of NO   554a   (alpha) : occ=  -0.0043977
 WARNING: unphysical eigenvalue of NO   555a   (alpha) : occ=  -0.0051883
 WARNING: unphysical eigenvalue of NO   556a   (alpha) : occ=  -0.0092875
 WARNING: unphysical eigenvalue of NO   557a   (alpha) : occ=  -0.0131264
 WARNING: unphysical eigenvalue of NO   558a   (alpha) : occ=  -0.2113208
 WARNING: unphysical eigenvalue of NO     1a   (beta)  : occ=   1.7625933
 WARNING: unphysical eigenvalue of NO     2a   (beta)  : occ=   1.0317340
 WARNING: unphysical eigenvalue of NO     3a   (beta)  : occ=   1.0077429
 WARNING: unphysical eigenvalue of NO   550a   (beta)  : occ=  -0.0013687
 WARNING: unphysical eigenvalue of NO   551a   (beta)  : occ=  -0.0019557
 WARNING: unphysical eigenvalue of NO   552a   (beta)  : occ=  -0.0025498
 WARNING: unphysical eigenvalue of NO   553a   (beta)  : occ=  -0.0044239
 WARNING: unphysical eigenvalue of NO   554a   (beta)  : occ=  -0.0044613
 WARNING: unphysical eigenvalue of NO   555a   (beta)  : occ=  -0.0067618
 WARNING: unphysical eigenvalue of NO   556a   (beta)  : occ=  -0.0172742
 WARNING: unphysical eigenvalue of NO   557a   (beta)  : occ=  -0.0423110
 WARNING: unphysical eigenvalue of NO   558a   (beta)  : occ=  -0.7723210

     +--------------------------------------------------------------------+
     | MP2 relaxed   natural orbital occupation numbers                   |
     +--------------------------------------------------------------------+
     | natural orb.  |  occupation numbers                                |
     +---------------+----------------------------------------------------+
     | a   (alpha)   |                                                    |
     |     1 -     5 |     1.2080    1.0070    1.0019    1.0005    1.0001 |
     |     6 -    10 |     1.0001    1.0001    1.0000    1.0000    1.0000 |
     |    11 -    15 |     1.0000    1.0000    1.0000    1.0000    1.0000 |
     |    16 -    20 |     1.0000    1.0000    1.0000    1.0000    1.0000 |
     |    21 -    25 |     1.0000    1.0000    1.0000    1.0000    0.9988 |
     |    26 -    30 |     0.9947    0.9943    0.9934    0.9923    0.9922 |
     |    31 -    35 |     0.9901    0.9899    0.9897    0.9883    0.9872 |
     |    36 -    40 |     0.9861    0.9857    0.9836    0.9832    0.9821 |
     |    41 -    45 |     0.9819    0.9813    0.9805    0.9804    0.9776 |
     |    46 -    50 |     0.9774    0.9762    0.9757    0.9747    0.9745 |
     |    51 -    55 |     0.9733    0.9730    0.9706    0.9655    0.0290 |
     |    56 -    60 |     0.0250    0.0241    0.0189    0.0184    0.0170 |
     |    61 -    65 |     0.0164    0.0156    0.0149    0.0140    0.0124 |
     |    66 -    70 |     0.0106    0.0101    0.0094    0.0088    0.0082 |
     |    71 -    75 |     0.0080    0.0075    0.0074    0.0072    0.0068 |
     |    76 -    80 |     0.0067    0.0065    0.0062    0.0056    0.0054 |
     |    81 -    85 |     0.0052    0.0050    0.0050    0.0048    0.0046 |
     |    86 -    90 |     0.0045    0.0045    0.0043    0.0043    0.0042 |
     |    91 -    95 |     0.0042    0.0041    0.0040    0.0040    0.0039 |
     |    96 -   100 |     0.0038    0.0037    0.0037    0.0037    0.0036 |
     |   101 -   105 |     0.0036    0.0035    0.0034    0.0034    0.0034 |
     |   106 -   110 |     0.0033    0.0033    0.0033    0.0032    0.0032 |
     |   111 -   115 |     0.0031    0.0030    0.0029    0.0029    0.0028 |
     |   116 -   120 |     0.0027    0.0024    0.0024    0.0023    0.0023 |
     |   121 -   125 |     0.0022    0.0022    0.0020    0.0018    0.0018 |
     |   126 -   130 |     0.0016    0.0015    0.0014    0.0014    0.0014 |
     |   131 -   135 |     0.0013    0.0013    0.0013    0.0012    0.0011 |
     |   136         |     0.0010                                         |
     | a   (beta)    |                                                    |
     |     1 -     5 |     1.7626    1.0317    1.0077    1.0008    1.0002 |
     |     6 -    10 |     1.0002    1.0001    1.0001    1.0001    1.0001 |
     |    11 -    15 |     1.0001    1.0000    1.0000    1.0000    1.0000 |
     |    16 -    20 |     1.0000    1.0000    1.0000    1.0000    1.0000 |
     |    21 -    25 |     1.0000    1.0000    1.0000    1.0000    0.9965 |
     |    26 -    30 |     0.9949    0.9947    0.9931    0.9918    0.9916 |
     |    31 -    35 |     0.9915    0.9892    0.9889    0.9889    0.9872 |
     |    36 -    40 |     0.9869    0.9858    0.9851    0.9832    0.9819 |
     |    41 -    45 |     0.9812    0.9808    0.9781    0.9756    0.9755 |
     |    46 -    50 |     0.9746    0.9725    0.9717    0.9715    0.9706 |
     |    51 -    55 |     0.9683    0.9673    0.9640    0.0311    0.0278 |
     |    56 -    60 |     0.0268    0.0263    0.0240    0.0214    0.0194 |
     |    61 -    65 |     0.0181    0.0170    0.0158    0.0140    0.0114 |
     |    66 -    70 |     0.0104    0.0084    0.0083    0.0081    0.0080 |
     |    71 -    75 |     0.0077    0.0076    0.0072    0.0069    0.0064 |
     |    76 -    80 |     0.0063    0.0060    0.0058    0.0055    0.0053 |
     |    81 -    85 |     0.0052    0.0050    0.0048    0.0047    0.0046 |
     |    86 -    90 |     0.0044    0.0043    0.0043    0.0041    0.0041 |
     |    91 -    95 |     0.0040    0.0040    0.0039    0.0039    0.0038 |
     |    96 -   100 |     0.0037    0.0037    0.0036    0.0036    0.0036 |
     |   101 -   105 |     0.0035    0.0035    0.0034    0.0032    0.0031 |
     |   106 -   110 |     0.0030    0.0028    0.0028    0.0027    0.0025 |
     |   111 -   115 |     0.0025    0.0024    0.0024    0.0023    0.0022 |
     |   116 -   120 |     0.0021    0.0021    0.0020    0.0019    0.0018 |
     |   121 -   125 |     0.0018    0.0017    0.0017    0.0016    0.0015 |
     |   126 -   130 |     0.0015    0.0014    0.0013    0.0013    0.0013 |
     |   131 -   135 |     0.0013    0.0012    0.0012    0.0011    0.0011 |
     |   136 -   137 |     0.0011    0.0010                               |
     +---------------+----------------------------------------------------+
      natural orbitals with occ <   0.10E-02 are not shown

      Maximum change in occupation number:
        occupied (alpha) :    -3.45 % (   54 a    )
        virtual (alpha)  :     2.90 % (   55 a    )
        occupied (beta)  :    -3.60 % (   53 a    )
        virtual (beta)   :     3.11 % (   54 a    )


 **************************************************************
 *                                                            *
 *<<<<<<<<<<  GROUND STATE FIRST-ORDER PROPERTIES  >>>>>>>>>>>*
 *                                                            *
 **************************************************************


        ------------------------------------------------
            Method          :  MP2     
            Total Energy    :  -1401.4589698573
        ------------------------------------------------


        ------------------------------------------------
                      moments of inertia 
              741.748   2995.592   3267.003  in a.u.
 
                     rotational constants 
              0.08116    0.02010    0.01843  in cm**(-1)
        ------------------------------------------------


  NOTE: unrelaxed properties printed below refer to the MP1 wavefunction and
        are only correct through first order in the fluctuation potential!

 +===========================================================================+
 | OPERATOR         | EXPECTAT. VALUE  | ELECTRONIC CONT. | NUCLEAR CONTRIB. |
 +==================+==================+==================+==================+
 |                  |                  |                  |                  |
 | xdiplen  (unrel) |      2.55069710  |   -112.97168807  |    115.52238517  | 
 | xdiplen  (relax) |      0.23413446  |   -115.28825071  |    115.52238517  | 
 |                  |                  |                  |                  |
 | ydiplen  (unrel) |     -0.96242680  |    101.96054444  |   -102.92297125  | 
 | ydiplen  (relax) |     -0.69445214  |    102.22851911  |   -102.92297125  | 
 |                  |                  |                  |                  |
 | zdiplen  (unrel) |     -0.84607869  |     74.35716673  |    -75.20324542  | 
 | zdiplen  (relax) |     -2.51017423  |     72.69307119  |    -75.20324542  | 
 |                  |                  |                  |                  |
 | xxqudlen (unrel) |   -126.74843814  |  -1007.74416426  |    880.99572612  | 
 | xxqudlen (relax) |    -95.44726624  |   -976.44299236  |    880.99572612  | 
 |                  |                  |                  |                  |
 | xyqudlen (unrel) |     16.00607816  |    273.67171530  |   -257.66563714  | 
 | xyqudlen (relax) |      9.09263796  |    266.75827511  |   -257.66563714  | 
 |                  |                  |                  |                  |
 | xzqudlen (unrel) |     27.23387506  |    700.82721442  |   -673.59333936  | 
 | xzqudlen (relax) |     32.32093601  |    705.91427537  |   -673.59333936  | 
 |                  |                  |                  |                  |
 | yyqudlen (unrel) |    -93.80623757  |   -478.80625168  |    385.00001410  | 
 | yyqudlen (relax) |    -92.42757636  |   -477.42759046  |    385.00001410  | 
 |                  |                  |                  |                  |
 | yzqudlen (unrel) |     -8.67774245  |   -173.06085141  |    164.38310896  | 
 | yzqudlen (relax) |    -16.95479359  |   -181.33790255  |    164.38310896  | 
 |                  |                  |                  |                  |
 | zzqudlen (unrel) |   -105.36807916  |   -843.70041070  |    738.33233154  | 
 | zzqudlen (relax) |   -121.71231877  |   -860.04465031  |    738.33233154  | 
 |                  |                  |                  |                  |
 +===========================================================================+


     Analysis of relaxed properties:
     ===============================


     dipole moment:
     --------------

     x      0.23413446
     y     -0.69445214
     z     -2.51017423

     | dipole moment | =      2.61496795 a.u. =      6.64658551 debye


     traceless quadrupole tensor:
     ----------------------------

               x              y              z

     x    11.62268132    13.63895695    48.48140401
     y                   16.15221615   -25.43219039
     z                                 -27.77489747


     principal axes of tensor: 

      x' = (   0.7999216,  -0.1382637,   0.5839594 )
      y' = (   0.2942248,   0.9384725,  -0.1808346 )
      z' = (  -0.5230269,   0.3164688,   0.7913851 )

     < Q(x'x') > =     44.65766402 a.u.
     < Q(y'y') > =     25.32876593 a.u.
     < Q(z'z') > =    -69.98642995 a.u.


     second moment of electron density:
     ----------------------------------

               x              y              z

     x   976.44299236  -266.75827511  -705.91427537
     y                  477.42759046   181.33790255
     z                                 860.04465031


     principal axes of tensor: 

      x' = (   0.7173757,  -0.2510144,  -0.6498953 )
      y' = (   0.0266537,   0.9420430,  -0.3344317 )
      z' = (   0.6961765,   0.2225910,   0.6824892 )

     < x'x'> =   1709.29548587 a.u.
     < y'y'> =    405.50385944 a.u.
     < z'z'> =    199.11588782 a.u.

     Isotropic second moment:     alpha =    771.30507771 a.u.

     Anisotropy of second moment:  beta =   1039.96924957 a.u.
 

    --------------------------------------------------------------------------


     Analysis of unrelaxed properties:
     =================================


     dipole moment:
     --------------

     x      2.55069710
     y     -0.96242680
     z     -0.84607869

     | dipole moment | =      2.85450000 a.u. =      7.25541524 debye


     traceless quadrupole tensor:
     ----------------------------

               x              y              z

     x   -27.16127978    24.00911723    40.85081258
     y                   22.25202107   -13.01661367
     z                                   4.90925870


     principal axes of tensor: 

      x' = (   0.7925506,  -0.3019153,  -0.5298214 )
      y' = (   0.5988530,   0.5492778,   0.5828113 )
      z' = (   0.1150596,  -0.7791926,   0.6161333 )

     < Q(x'x') > =    -63.61618400 a.u.
     < Q(y'y') > =     34.61680552 a.u.
     < Q(z'z') > =     28.99937848 a.u.


     second moment of electron density:
     ----------------------------------

               x              y              z

     x  1007.74416426  -273.67171530  -700.82721442
     y                  478.80625168   173.06085141
     z                                 843.70041070


     principal axes of tensor: 

      x' = (   0.7290506,  -0.2507431,  -0.6368777 )
      y' = (   0.0102824,   0.9343894,  -0.3561050 )
      z' = (   0.6843826,   0.2530699,   0.6837953 )

     < x'x'> =   1714.09092545 a.u.
     < y'y'> =    409.83946777 a.u.
     < z'z'> =    206.32043342 a.u.

     Isotropic second moment:     alpha =    776.75027554 a.u.

     Anisotropy of second moment:  beta =   1053.49193812 a.u.
 
 
                  ------------------------------
                   total gradient of MP2 energy      
                  ------------------------------

          ------------------------------------------------
           cartesian gradient of the energy (hartree/bohr)
          ------------------------------------------------

  ATOM      1 c           2 s           3 o           4 np          5 o 
dE/dx  0.3319417D-01 -0.1158218D+00  0.1090787D-01  0.6081359D-02 -0.2110747D-01
dE/dy -0.3860265D-01 -0.1205245D-01 -0.5243307D-02  0.8318020D-02 -0.5966221D-02
dE/dz -0.4060722D-01  0.2618334D+00 -0.1919284D+00  0.9503574D-02 -0.1675142D-01

  ATOM      6 o           7 o           8 o           9 h          10 h 
dE/dx  0.7513613D-01 -0.2840303D-02  0.3778241D-03  0.5255740D-02 -0.1071381D-01
dE/dy  0.2182057D-01  0.1888931D-02 -0.4986937D-02  0.2558599D-02  0.1991577D-01
dE/dz -0.4064151D-01 -0.1470955D-05 -0.3185655D-02 -0.4945919D-03  0.5736004D-02

  ATOM     11 h          12 o 
dE/dx -0.7610313D-03  0.2029131D-01
dE/dy  0.6747010D-02  0.5602661D-02
dE/dz -0.3141760D-02  0.1967903D-01
 
 resulting FORCE  (fx,fy,fz) = (-.562D-10,0.246D-09,0.124D-09)
 resulting MOMENT (mx,my,mz) = (-.700D-04,-.104D-02,0.151D-03)


 **********************************************************************
  |maximum component of gradient| : 0.26183342      (atom  2 s )       
   gradient norm                  : 0.36549154    
 **********************************************************************

   ***  orbital-relaxed dipole moment written to <control>  ***


 <getgrd> : data group $grad  is missing 

   ***  cartesian gradients written onto <gradient>  ***

 reference point for electrostatic moments:    0.00000   0.00000   0.00000




 ==============================================================================
                  MULLIKEN POPULATION ANALYSIS (CAO-BASIS)
 ==============================================================================

         BRUTTO POPULATIONS  
 
       values displayed are larger than   0.010000
 
 
 atomic populations from total density:
 
 atom      charge    n(s)      n(p)      n(d)      n(f)      n(g)
     1c      0.29320   2.39985   3.14080   0.15862   0.00753
     2s      1.49804   4.94767   8.71287   0.77096   0.07047
     3o     -1.13528   3.93129   5.10280   0.09049   0.01070
     4np     2.37060   3.91809  11.56662  11.32142   3.79495   0.02830
     5o     -0.39979   3.93227   4.37722   0.07682   0.01348
     6o     -0.73057   4.01117   4.61534   0.09309   0.01097
     7o     -0.81858   3.98468   4.73839   0.08277   0.01274
     8o     -0.84819   3.96710   4.78849   0.08019   0.01241
     9h     -1.97663   3.00422  -0.03824   0.01065
    10h      0.89143   0.05178   0.04961   0.00718
    11h      0.22865   0.72201   0.04117   0.00817
    12o     -0.37288   3.93295   4.34693   0.07910   0.01390
 
 moments (from total density versus population analysis)
 <charge> =            -1.000000           -1.000000
 <x   >   =             0.234134           -1.411054
 <y   >   =            -0.694452           -0.915670
 <z   >   =            -2.510174           -1.941687
 
 Unpaired electrons from D(alpha)-D(beta)
 
 atom      total     n(s)      n(p)      n(d)      n(f)      n(g)
     1c     -0.78878  -0.93795   0.13907   0.00927   0.00084
     2s      0.39269  -0.46478   0.86224   0.00299  -0.00776
     3o     -0.23742   0.07842  -0.30505  -0.00985  -0.00094
     4np    -2.06927   0.01731  -0.03164  -0.05973  -1.98461  -0.01060
     5o      0.48162   0.01142   0.47039  -0.00018  -0.00001
     6o      0.47950   0.13099   0.36024  -0.01053  -0.00120
     7o      0.02602   0.00333   0.01899   0.00369   0.00001
     8o      0.03721  -0.00347   0.03670   0.00388   0.00011
     9h      2.34072   2.42888  -0.08934   0.00118
    10h     -0.36584  -0.38124   0.01067   0.00473
    11h      0.13903   0.14686  -0.00803   0.00019
    12o      0.56451   0.01276   0.55181  -0.00006  -0.00000
 
 
 ==============================================================================
 
 Exporting ground state density


    ------------------------------------------------------------------------
         total  cpu-time :  4 hours 43 minutes and 34 seconds
         total wall-time : 35 minutes and 34 seconds
    ------------------------------------------------------------------------

   ****  ricc2 : all done  ****


    2018-12-11 02:41:13.952 

fine, there is no data group "$actual step"
next step = relax
