   This run of MOLCAS is using the pymolcas driver

                             OPE
                             OPE          NMOL  CASOP  ENMOLC A   SO
                 OPE        NMOLC        AS  OP EN  MO LC     AS  OP
                OPENM       OL CA        SO  PE NM  OL CA     SOP EN
                OP EN      MO   LC       AS  OP ENMOL  CASO   PENMOL
                OP  EN     MO   LC       AS  OP EN     MO     LC ASO
               OP   E  NMOL  C  AS       OP  EN MO     LC     AS  OP
               OP  E   NMO   LC AS        OPEN  MO     LCASOP EN   M
               O  PEN   MO  LCA  SO
            OPE   NMO   L   CAS    OP
        OPENMOL  CASOP     ENMOL   CASOPE
     OPENMOLCA   SOPENMOLCASOPEN   MOLCASOPE
    OPENMOLCAS   OP           EN   MOL    CAS
    OPENMOLCAS       OP  ENM        O     LCA
    OPENMOLCAS    OPEN  MOLCASO     P  E  NMO
    OPENMOLCAS     OP               E  N  MOL
    OPENMOLCA   SO           PENM   O  L  CAS    OPEN    MO    LCAS
    OPENMOLCA   SOP           ENM   O  L  CAS   OP  EN  MOLC  AS   O
    OPENMOLCA   SOPE           NM      O  LCA   S      OP  EN MO
    OPENMOLC                AS         O  PEN   M      OL  CA  SOPE
    OPENMO        LCASOPE  NMOL        C  ASO   P      ENMOLC     AS
    OPE     NMO      LCA  SO     P     E   NM   OL  CA SO  PE N   MO
          OPENMOLCA            SOPE   NMO        LCAS  O    P  ENMO
     OPENMOLCASOPENMOLCASOPENMOLCASOPENMOLCA
        OPENMOLCASOPENMOLCASOPENMOLCASOPE
            OPENMOLCASOPENMOLCASOPENM
               OPENMOLCASOPENMOLCA        version: 18.09
                   OPENMOLCASO
                       OPE                tag: 50-g6d6e5e5-dirty

 OpenMolcas is free software; you can redistribute it and/or modify it
 under the terms of the GNU Lesser General Public License version 2.1.
 OpenMolcas is distributed in the hope that it will be useful, but it
 is provided "as is" and without any express or implied warranties.
 For more details see the full text of the license in the file
 LICENSE or in <http://www.gnu.org/licenses/>.

                 Copyright (C) The OpenMolcas Authors
           For the author list and the recommended citation,
                   consult the file CONTRIBUTORS.md

           *************************************************
           * pymolcas version py2.04                       *
           *   build 3b3f1139d1f9af0cd96dc01c0ce9d5c0      *
           *   (after the EMIL interpreter by V. Veryazov) *
           *************************************************

configuration info
------------------
C Compiler ID: Intel
C flags: -std=gnu99 -qopenmp
Fortran Compiler ID: Intel
Fortran flags: -fpp -i8 -r8 -heap-arrays -qopenmp
Definitions: _MOLCAS_;_I8_;_LINUX_;_MKL_;_FDE_
Parallel: OFF (GA=OFF)


   --------------------------------------------------------------------------------------------------------
  |
  |           Project: PuO2_C6H5_SO2_OH-m1-quartet.casscf.MB
  |    Submitted from: /home/vallet/John-methylsulfonyl/PuO2_C6H5SO2_OH-m1/optg-freq-pbe0/SO-XMS
  |      Scratch area: /state/partition1/vallet/499061.phlam-s-sakura/PuO2_C6H5_SO2_OH-m1-quartet.casscf.MB
  |   Save outputs to: /home/vallet/John-methylsulfonyl/PuO2_C6H5SO2_OH-m1/optg-freq-pbe0/SO-XMS
  |            Molcas: /home/pcmt/OpenMolcas/OpenMolcas-20181005
  |
  | Scratch area is empty
  |
  |    MOLCAS_DRIVER = /home/pcmt/OpenMolcas/OpenMolcas-20181005/sbin/pymolcas
  |   MOLCAS_LICENSE = /home/pcmt/molcas/license
  |    MOLCAS_MOLDEN = ON
  |    MOLCAS_NPROCS = 1
  |    MOLCAS_SOURCE = /home/pcmt/OpenMolcas/OpenMolcas-20181005
  | MOLCAS_STRUCTURE = 0
  |
   --------------------------------------------------------------------------------------------------------

++ ---------   Input file   ---------

&GATEWAY
   COORD=$HomeDir/PuO2_C6H5_SO2_OH-quartet.pbe0.optg-zaxis.xyz
   BASIS=ANO-RCC-MB
   Group=Nosym
   ANGM=0.0 0.0 0.0
   RICD

>>> COPY $Project.RunFile $HomeDir

&SEWARD

&RASSCF
   Spin=4
   Symmetry=1
   Nactel=3 0 0
   Inactive=95
   Ras2=4
   CIRoots=4 4 1

>>> COPY $Project.RasOrb $HomeDir/$Project.RasOrb_quartets

>>> COPY $Project.rasscf.molden $HomeDir/$Project.rasscf_quartets.molden

&RASSCF
   Spin=2
   Symmetry=1
   Nactel=3 0 0
   Inactive=95
   Ras2=4
   CIRoots=20 20 1

>>> COPY $Project.RasOrb $HomeDir/$Project.RasOrb_doublets

>>> COPY $Project.rasscf.molden $HomeDir/$Project.rasscf_doublets.molden

-- ----------------------------------

--- Start Module: gateway at Fri Nov 16 16:10:59 2018 ---
 
()()()()()()()()()()()()()()()()()()()()()()()()()()()()()()()()()()()()()()()()()()()()()()()()()()

                                              &GATEWAY

                                   only a single process is used
                       available to each process: 16 GB of memory, 8 threads
()()()()()()()()()()()()()()()()()()()()()()()()()()()()()()()()()()()()()()()()()()()()()()()()()()
 
 
++    Symmetry information:
      ---------------------
 
                    Character Table for C1 
 
                             E  
                    a        1  x, y, xy, Rz, z, xz, Ry, yz, Rx, I
--
 
 
++    Basis set information:
      ----------------------
 
 
      Basis set label: C.ANO-RCC...2S1P.
 
      Electronic valence basis set:
      ------------------
      Associated Effective Charge   6.000000 au
      Associated Actual Charge      6.000000 au
      Nuclear Model: Point charge
 
      Shell  nPrim  nBasis  Cartesian Spherical Contaminant
         s      14       2        X                  
         p       9       1        X                  
 
 
      Basis set label: S.ANO-RCC...3S2P.
 
      Electronic valence basis set:
      ------------------
      Associated Effective Charge  16.000000 au
      Associated Actual Charge     16.000000 au
      Nuclear Model: Point charge
 
      Shell  nPrim  nBasis  Cartesian Spherical Contaminant
         s      17       3        X                  
         p      12       2        X                  
 
 
      Basis set label: O.ANO-RCC...2S1P.
 
      Electronic valence basis set:
      ------------------
      Associated Effective Charge   8.000000 au
      Associated Actual Charge      8.000000 au
      Nuclear Model: Point charge
 
      Shell  nPrim  nBasis  Cartesian Spherical Contaminant
         s      14       2        X                  
         p       9       1        X                  
 
 
      Basis set label: PU.ANO-RCC...7S6P4D2F.
 
      Electronic valence basis set:
      ------------------
      Associated Effective Charge  94.000000 au
      Associated Actual Charge     94.000000 au
      Nuclear Model: Point charge
 
      Shell  nPrim  nBasis  Cartesian Spherical Contaminant
         s      26       7        X                  
         p      23       6        X                  
         d      17       4                 X         
         f      13       2                 X         
 
 
      Basis set label: O.ANO-RCC...2S1P.
 
      Electronic valence basis set:
      ------------------
      Associated Effective Charge   8.000000 au
      Associated Actual Charge      8.000000 au
      Nuclear Model: Point charge
 
      Shell  nPrim  nBasis  Cartesian Spherical Contaminant
         s      14       2        X                  
         p       9       1        X                  
 
 
      Basis set label: H.ANO-RCC...1S.
 
      Electronic valence basis set:
      ------------------
      Associated Effective Charge   1.000000 au
      Associated Actual Charge      1.000000 au
      Nuclear Model: Point charge
 
      Shell  nPrim  nBasis  Cartesian Spherical Contaminant
         s       8       1        X                  
 
 
      Basis set label: O.ANO-RCC...2S1P.
 
      Electronic valence basis set:
      ------------------
      Associated Effective Charge   8.000000 au
      Associated Actual Charge      8.000000 au
      Nuclear Model: Point charge
 
      Shell  nPrim  nBasis  Cartesian Spherical Contaminant
         s      14       2        X                  
         p       9       1        X                  
 
 
      Basis set label: H.ANO-RCC...1S.
 
      Electronic valence basis set:
      ------------------
      Associated Effective Charge   1.000000 au
      Associated Actual Charge      1.000000 au
      Nuclear Model: Point charge
 
      Shell  nPrim  nBasis  Cartesian Spherical Contaminant
         s       8       1        X                  
--
 
 
++    Molecular structure info:
      -------------------------
 
                    ************************************************ 
                    **** Cartesian Coordinates / Bohr, Angstrom **** 
                    ************************************************ 
 
     Center  Label                x              y              z                     x              y              z
        1      C1              -4.228092       4.154601      -5.235108             -2.237410       2.198520      -2.770300
        2      C2              -5.283599       5.180250      -3.060600             -2.795960       2.741270      -1.619600
        3      C3              -7.163177       6.993102      -3.206582             -3.790590       3.700590      -1.696850
        4      C4              -8.018845       7.804682      -5.554566             -4.243390       4.130060      -2.939350
        5      C5              -6.978815       6.791184      -7.734951             -3.693030       3.593740      -4.093160
        6      C6              -5.087407       4.970566      -7.569770             -2.692140       2.630310      -4.005750
        7      S7              -4.234555       4.164087       0.056408             -2.240830       2.203540       0.029850
        8      O8              -1.368653       4.507942      -0.124382             -0.724260       2.385500      -0.065820
        9      PU9              0.000000       0.000000       0.000000              0.000000       0.000000       0.000000
       10      O10             -0.049454      -0.195133      -3.338031             -0.026170      -0.103260      -1.766410
       11      O11             -4.736164       1.328780      -0.008617             -2.506270       0.703160      -0.004560
       12      O12              4.070054      -0.947301      -0.015156              2.153780      -0.501290      -0.008020
       13      H13              4.757026      -0.984547       1.659690              2.517310      -0.521000       0.878270
       14      O14              0.000000       0.000000       3.339241              0.000000       0.000000       1.767050
       15      H15             -7.953158       7.767719      -1.478843             -4.208630       4.110500      -0.782570
       16      H16             -9.490885       9.225171      -5.679024             -5.022360       4.881750      -3.005210
       17      H17             -7.637612       7.418932      -9.571142             -4.041650       3.925930      -5.064830
       18      H18             -4.276299       4.184118      -9.279519             -2.262920       2.214140      -4.910510
       19      H19             -2.754673       2.736758      -5.069304             -1.457710       1.448230      -2.682560
 
                    ************************************************* 
                    **** InterNuclear Distances / Bohr, Angstrom **** 
                    ************************************************* 
 
     Atom centers         Bohr        Angstrom
   13 H13      12 O12     1.810642        0.958151
   17 H17       5 C5      2.049301        1.084444
   18 H18       6 C6    
   16 H16       4 C4      2.049434        1.084514
   19 H19       1 C1      2.051520        1.085618
   15 H15       3 C3      2.051630        1.085676
    3 C3        2 C2      2.615446        1.384034
    6 C6        1 C1      2.618180        1.385481
    5 C5        4 C4      2.619717        1.386295
    2 C2        1 C1      2.625744        1.389484
    4 C4        3 C3      2.627520        1.390424
    6 C6        5 C5      2.630468        1.391984
   11 O11       7 S7      2.880071        1.524068
    8 O8        7 S7      2.892113        1.530440
   14 O14       9 PU9     3.339241        1.767050
   10 O10       9 PU9     3.344095        1.769619
    7 S7        2 C2      3.442212        1.821540
   15 H15       2 C2      4.040236        2.138001
   18 H18       1 C1      4.044806        2.140419
   19 H19       2 C2      4.049816        2.143070
   17 H17       4 C4      4.053026        2.144769
   16 H16       5 C5      4.057292        2.147027
   18 H18       5 C5      4.060305        2.148621
   17 H17       6 C6      4.062454        2.149758
   16 H16       3 C3      4.063659        2.150396
   15 H15       4 C4      4.076420        2.157149
   19 H19       6 C6      4.084591        2.161472
   12 O12       9 PU9     4.178870        2.211363
   19 H19      10 O10     4.348735        2.301252
    6 C6        2 C2      4.518304        2.390984
    5 C5        3 C3      4.536617        2.400674
    4 C4        2 C2      4.537520        2.401152
    6 C6        4 C4      4.548251        2.406831
    5 C5        1 C1      4.557112        2.411520
    3 C3        1 C1      4.559247        2.412649
   11 O11       8 O8      4.632559        2.451445
   17 H17      16 H16     4.673938        2.473342
   18 H18      17 H17     4.674130        2.473443
   16 H16      15 H15     4.704284        2.489400
   19 H19      18 H18     4.704903        2.489727
    9 PU9       8 O8      4.712772        2.493892
   11 O11       9 PU9     4.919042        2.603045
    8 O8        2 C2      4.939654        2.613952
   11 O11       2 C2      4.944503        2.616518
   13 H13       9 PU9     5.133537        2.716551
   14 O14      13 H13     5.139993        2.719967
    7 S7        3 C3      5.217974        2.761233
    5 C5        2 C2      5.226703        2.765852
    6 C6        3 C3      5.238023        2.771843
    4 C4        1 C1      5.272092        2.789871
    7 S7        1 C1      5.291529        2.800157
   12 O12      10 O10     5.345803        2.828877
   14 O14      12 O12     5.358609        2.835654
   15 H15       7 S7      5.401034        2.858104
   19 H19       8 O8      5.432347        2.874674
   19 H19       7 S7      5.522703        2.922488
   19 H19      11 O11     5.614202        2.970908
--
 
 
            Nuclear Potential Energy           2343.51038535 au
 
--- Stop Module: gateway at Fri Nov 16 16:11:51 2018 /rc=_RC_ALL_IS_WELL_ ---
*** files: PuO2_C6H5_SO2_OH-m1-quartet.casscf.MB.RICDLib xmldump
    saved to directory /home/vallet/John-methylsulfonyl/PuO2_C6H5SO2_OH-m1/optg-freq-pbe0/SO-XMS
--- Module gateway spent 52 seconds ---

>>> COPY PuO2_C6H5_SO2_OH-m1-quartet.casscf.MB.RunFile /home/vallet/John-methylsulfonyl/PuO2_C6H5SO2_OH-m1/optg-freq-pbe0/SO-XMS

--- Start Module: seward at Fri Nov 16 16:11:51 2018 ---
 
()()()()()()()()()()()()()()()()()()()()()()()()()()()()()()()()()()()()()()()()()()()()()()()()()()

                                              &SEWARD

                                   only a single process is used
                       available to each process: 16 GB of memory, 8 threads
()()()()()()()()()()()()()()()()()()()()()()()()()()()()()()()()()()()()()()()()()()()()()()()()()()
 
               SEWARD will generate:
                  Multipole Moment integrals up to order  2
                  Kinetic Energy integrals
                  Nuclear Attraction integrals (point charge)
                  One-Electron Hamiltonian integrals
                  Velocity integrals
                  Relativistic Douglas-Kroll-Hess integrals:
                    - Parametrization         : EXP
                    - DKH order of Hamiltonian: 2
                    - DKH order of Properties : 0
                         - multipole moment operators
                         - electric potential operators
                         - contact operators
                  Orbital angular momentum around ( 0.0000  0.0000  0.0000 )
                  Atomic mean-field integrals
                  RI decomposed two-electron repulsion integrals stored Cholesky style
                   - acCD auxiliary basis
                   - CD Threshold:   0.10E-03
 
                   Integrals are discarded if absolute value <: 0.10E-13
                   Integral cutoff threshold is set to       <: 0.10E-15
 
            Nuclear Potential Energy           2343.51038535 au
 
 
      Basis set specifications :
      Symmetry species         a  
      Basis functions          129
 
 
  Input file to MOLDEN was generated!
 
--- Stop Module: seward at Fri Nov 16 16:12:11 2018 /rc=_RC_ALL_IS_WELL_ ---
*** files: PuO2_C6H5_SO2_OH-m1-quartet.casscf.MB.GssOrb PuO2_C6H5_SO2_OH-m1-quartet.casscf.MB.guessorb.h5 PuO2_C6H5_SO2_OH-m1-quartet.casscf.MB.guessorb.molden xmldump
    saved to directory /home/vallet/John-methylsulfonyl/PuO2_C6H5SO2_OH-m1/optg-freq-pbe0/SO-XMS
--- Module seward spent 19 seconds ---

*** symbolic link created: INPORB -> PuO2_C6H5_SO2_OH-m1-quartet.casscf.MB.GssOrb
--- Start Module: rasscf at Fri Nov 16 16:12:11 2018 ---
 
()()()()()()()()()()()()()()()()()()()()()()()()()()()()()()()()()()()()()()()()()()()()()()()()()()

                                              &RASSCF

                                   only a single process is used
                       available to each process: 16 GB of memory, 8 threads
()()()()()()()()()()()()()()()()()()()()()()()()()()()()()()()()()()()()()()()()()()()()()()()()()()
 
 
      Header of the ONEINT file:
      --------------------------
      
      Integrals generated by seward 4.2.0  , Fri Nov 16 16:11:52 2018
 
 
      OrdInt status: non-squared
 
 
      Cartesian coordinates in Angstrom:
      -----------------------------------------------------
      No.  Label        X            Y            Z        
      -----------------------------------------------------
       1   C1        -2.23741000   2.19852000  -2.77030000
       2   C2        -2.79596000   2.74127000  -1.61960000
       3   C3        -3.79059000   3.70059000  -1.69685000
       4   C4        -4.24339000   4.13006000  -2.93935000
       5   C5        -3.69303000   3.59374000  -4.09316000
       6   C6        -2.69214000   2.63031000  -4.00575000
       7   S7        -2.24083000   2.20354000   0.02985000
       8   O8        -0.72426000   2.38550000  -0.06582000
       9   PU9        0.00000000   0.00000000   0.00000000
      10   O10       -0.02617000  -0.10326000  -1.76641000
      11   O11       -2.50627000   0.70316000  -0.00456000
      12   O12        2.15378000  -0.50129000  -0.00802000
      13   H13        2.51731000  -0.52100000   0.87827000
      14   O14        0.00000000   0.00000000   1.76705000
      15   H15       -4.20863000   4.11050000  -0.78257000
      16   H16       -5.02236000   4.88175000  -3.00521000
      17   H17       -4.04165000   3.92593000  -5.06483000
      18   H18       -2.26292000   2.21414000  -4.91051000
      19   H19       -1.45771000   1.44823000  -2.68256000
      -----------------------------------------------------
      Nuclear repulsion energy = 2343.51038535
 
++    Wave function specifications:
      -----------------------------
 
      Number of closed shell electrons         190
      Number of electrons in active shells       3
      Max number of holes in RAS1 space          0
      Max nr of electrons in RAS3 space          0
      Number of inactive orbitals               95
      Number of active orbitals                  4
      Number of secondary orbitals              30
      Spin quantum number                      1.5
      State symmetry                             1
--
 
++    Orbital specifications:
      -----------------------
 
      Symmetry species                           1
                                                 a
      Frozen orbitals                            0
      Inactive orbitals                         95
      Active orbitals                            4
      RAS1 orbitals                              0
      RAS2 orbitals                              4
      RAS3 orbitals                              0
      Secondary orbitals                        30
      Deleted orbitals                           0
      Number of basis functions                129
--
 
++    CI expansion specifications:
      ----------------------------
 
      Number of CSFs                             4
      Number of determinants                     4
      Number of root(s) required                 4
      Root chosen for geometry opt.              4
      CI roots used                              1     2     3     4
      weights                                0.250 0.250 0.250 0.250
      highest root included in the CI            4
      max. size of the explicit Hamiltonian      4
--
 
++    Optimization specifications:
      ----------------------------
 
      RASSCF algorithm: LK RI/DF
      Maximum number of macro iterations       200
      Maximum number of SX iterations          100
      Threshold for RASSCF energy            0.100E-07
      Threshold for max MO rotation          0.100E+00
      Threshold for max BLB element          0.100E-03
      Level shift parameter                  0.500E+00
      Make Quasi-Newton update
--
 
      Orbitals from runfile: guessorb orbitals
      The MO-coefficients are taken from guessorb on runfile
 
      Total molecular charge   -1.00
 
      ************************************************************************************************************************
      *                                                                                                                      *
      *                                            Wave function control section                                             *
      *                                                                                                                      *
      ************************************************************************************************************************
 
 
                                         RASSCF iterations: Energy and convergence statistics
                                         ----------------------------------------------------
 
      Iter CI   SX   CI       RASSCF       Energy    max ROT     max BLB   max BLB  Level Ln srch  Step   QN   Walltime
          iter iter root      energy       change     param      element    value   shift minimum  type update hh:mm:ss
 Nr of preliminary CI iterations:   1
      Total energies have been shifted. Add               -30000.00 au
        1   1   12    0  -535.04365137    0.00E+00   0.27E+00*  94  96 1  0.14E+01*  2.83   0.00    SX    NO    0:00:03
        2   1   13    0  -537.72631156   -0.27E+01*  0.17E+00*  94  96 1  0.10E+01*  2.26   0.00    SX    NO    0:00:01
        3   1   13    0  -539.26781127   -0.15E+01*  0.21E+00*  93  96 1 -0.50E+00*  1.82   0.00    SX    NO    0:00:01
        4   1   12    0  -540.39082442   -0.11E+01* -0.24E+00*  93  98 1  0.51E+00*  1.32   0.00    SX    NO    0:00:01
        5   1   12    0  -541.21102651   -0.82E+00* -0.22E+00*  93  98 1  0.37E+00*  0.88   2.13    QN   YES    0:00:01
        6   1   11    0  -541.65936737   -0.45E+00* -0.15E+00*  93  98 1  0.20E+00*  0.67   2.39    LS   YES    0:00:01
        7   1   11    0  -541.84288728   -0.18E+00* -0.16E+00*  96 101 1 -0.11E+00*  0.57   2.40    QN   YES    0:00:01
        8   1   11    0  -541.99183595   -0.15E+00* -0.15E+00*  90  96 1 -0.93E-01*  0.56   2.08    QN   YES    0:00:01
        9   1   10    0  -542.08622267   -0.94E-01* -0.13E+00*  90  96 1 -0.10E+00*  0.56   2.13    QN   YES    0:00:01
       10   1   10    0  -542.15429357   -0.68E-01*  0.17E+00*  90  96 1 -0.97E-01*  0.55   2.50    QN   YES    0:00:01
       11   1   10    0  -542.22023540   -0.66E-01*  0.19E+00*  90  96 1 -0.71E-01*  0.52   2.29    QN   YES    0:00:01
       12   1   10    0  -542.27918583   -0.59E-01*  0.14E+00*  90 101 1  0.76E-01*  0.47   1.73    QN   YES    0:00:01
       13   1   10    0  -542.32015996   -0.41E-01* -0.12E+00*  95  96 1  0.68E-01*  0.45   1.57    QN   YES    0:00:01
       14   1   10    0  -542.35537766   -0.35E-01*  0.14E+00*  90  96 1  0.60E-01*  0.44   1.89    QN   YES    0:00:01
       15   1   10    0  -542.39596644   -0.41E-01*  0.14E+00*  90  96 1  0.76E-01*  0.42   2.02    QN   YES    0:00:01
       16   1   10    0  -542.43259530   -0.37E-01*  0.13E+00*  90  96 1  0.68E-01*  0.41   1.93    QN   YES    0:00:01
       17   1   10    0  -542.45817733   -0.26E-01*  0.95E-01   90  96 1  0.44E-01*  0.40   1.76    QN   YES    0:00:01
       18   1   10    0  -542.47330747   -0.15E-01*  0.64E-01   90 101 1 -0.31E-01*  0.39   1.72    QN   YES    0:00:01
       19   1    9    0  -542.48171915   -0.84E-02*  0.38E-01   90 101 1 -0.22E-01*  0.39   1.69    LS   YES    0:00:01
       20   1    9    0  -542.48338784   -0.17E-02* -0.12E-01   90 101 1 -0.17E-01*  0.40   1.16    QN   YES    0:00:01
       21   1    9    0  -542.48573171   -0.23E-02* -0.11E-01   95 102 1 -0.80E-02*  0.39   2.04    LS   YES    0:00:01
       22   1    9    0  -542.48654973   -0.82E-03*  0.15E-01   78 100 1  0.61E-02*  0.39   1.08    QN   YES    0:00:01
       23   1    8    0  -542.48704117   -0.49E-03*  0.13E-01   95 102 1 -0.71E-02*  0.40   1.11    QN   YES    0:00:01
       24   1    8    0  -542.48735625   -0.32E-03*  0.17E-01   95 102 1 -0.32E-02*  0.40   1.76    QN   YES    0:00:01
       25   1    8    0  -542.48757820   -0.22E-03* -0.20E-01   99 101 1 -0.27E-02*  0.40   1.76    QN   YES    0:00:01
       26   1    8    0  -542.48776059   -0.18E-03* -0.35E-01   99 101 1 -0.30E-02*  0.39   2.15    QN   YES    0:00:01
       27   1    8    0  -542.48800497   -0.24E-03* -0.65E-01   95 102 1  0.46E-02*  0.39   2.30    QN   YES    0:00:01
       28   1    8    0  -542.48840811   -0.40E-03* -0.15E+00*  95 102 1  0.60E-02*  0.39   2.50    QN   YES    0:00:01
       29   1    9    0  -542.48933395   -0.93E-03* -0.29E+00*  97 100 1  0.81E-02*  0.40   2.50    QN   YES    0:00:01
       30   1    9    0  -542.49091343   -0.16E-02*  0.20E+00*  97 100 1  0.13E-01*  0.40   1.27    QN   YES    0:00:01
       31   1    9    0  -542.49184709   -0.93E-03*  0.10E+00*  97 100 1  0.14E-01*  0.41   1.13    QN   YES    0:00:01
       32   1    9    0  -542.49393369   -0.21E-02*  0.17E+00*  97 100 1  0.13E-01*  0.41   2.50    QN   YES    0:00:01
       33   1    9    0  -542.50025617   -0.63E-02*  0.64E-01   97 100 1  0.11E-01*  0.41   1.71    QN   YES    0:00:01
       34   1    9    0  -542.50398090   -0.37E-02* -0.67E-01   97 100 1  0.93E-02*  0.41   1.71    QN   YES    0:00:01
       35   1    9    0  -542.50617016   -0.22E-02*  0.77E-01   65 101 1 -0.85E-02*  0.41   1.78    QN   YES    0:00:01
       36   1    9    0  -542.50758958   -0.14E-02*  0.89E-01   78 100 1  0.72E-02*  0.41   1.32    QN   YES    0:00:01
       37   1    9    0  -542.50853679   -0.95E-03*  0.33E-01   78 100 1  0.54E-02*  0.41   1.16    QN   YES    0:00:01
       38   1    8    0  -542.50917391   -0.64E-03*  0.33E-01   95 102 1 -0.38E-02*  0.41   2.11    LS   YES    0:00:01
       39   1    8    0  -542.50941397   -0.24E-03*  0.15E-01   65 101 1  0.52E-02*  0.41   1.10    QN   YES    0:00:01
       40   1    8    0  -542.50969817   -0.28E-03*  0.17E-01   65 101 1  0.34E-02*  0.41   2.17    LS   YES    0:00:01
       41   1    8    0  -542.50981526   -0.12E-03*  0.12E-01   46 101 1 -0.18E-02*  0.41   1.06    QN   YES    0:00:01
       42   1    8    0  -542.50991128   -0.96E-04*  0.17E-01   96 100 1 -0.16E-02*  0.41   2.50    LS   YES    0:00:01
       43   1    8    0  -542.50997051   -0.59E-04* -0.59E-02   65 101 1 -0.17E-02*  0.41   1.14    QN   YES    0:00:01
       44   1    7    0  -542.51001186   -0.41E-04* -0.86E-02   96 100 1 -0.13E-02*  0.41   2.50    LS   YES    0:00:01
       45   1    7    0  -542.51003610   -0.24E-04*  0.43E-02   46 101 1  0.18E-02*  0.41   1.07    QN   YES    0:00:01
       46   1    7    0  -542.51005588   -0.20E-04*  0.56E-02   46 101 1  0.85E-03*  0.41   2.32    LS   YES    0:00:01
       47   1    7    0  -542.51006527   -0.94E-05*  0.23E-02   95 102 1  0.85E-03*  0.41   1.02    QN   YES    0:00:01
       48   1    7    0  -542.51007292   -0.76E-05*  0.26E-02   46 101 1 -0.58E-03*  0.41   2.14    LS   YES    0:00:01
       49   1    7    0  -542.51007587   -0.29E-05*  0.17E-02   46 101 1 -0.74E-03*  0.41   0.99    QN   YES    0:00:05
       50   1    7    0  -542.51007942   -0.36E-05*  0.24E-02   95 100 1 -0.34E-03*  0.41   1.84    QN   YES    0:00:01
       51   1    7    0  -542.51008222   -0.28E-05*  0.17E-02   95 100 1 -0.35E-03*  0.41   1.59    QN   YES    0:00:01
       52   1    7    0  -542.51008369   -0.15E-05*  0.18E-02   46 101 1  0.30E-03*  0.41   1.75    QN   YES    0:00:01
       53   1    6    0  -542.51008479   -0.11E-05*  0.14E-02   95 100 1 -0.18E-03*  0.41   1.56    QN   YES    0:00:01
       54   1    6    0  -542.51008540   -0.61E-06*  0.17E-02   95 102 1 -0.13E-03*  0.41   2.23    LS   YES    0:00:01
       55   1    6    0  -542.51008546   -0.65E-07* -0.46E-03   46 101 1 -0.24E-03*  0.41   0.58    QN   YES    0:00:01
       56   1    6    0  -542.51008587   -0.41E-06* -0.70E-03   95 102 1 -0.12E-03*  0.41   1.69    QN   YES    0:00:01
       57   1    6    0  -542.51008630   -0.43E-06* -0.12E-02   97 101 1  0.80E-04   0.41   1.41    QN   YES    0:00:01
       58   1    6    0  -542.51008650   -0.20E-06* -0.17E-02   95 100 1  0.83E-04   0.41   2.50    LS   YES    0:00:01
       59   1    6    0  -542.51008652   -0.17E-07* -0.26E-03   46 101 1  0.14E-03*  0.41   0.54    QN   YES    0:00:01
       60   1    6    0  -542.51008664   -0.12E-06* -0.40E-03   95 100 1  0.11E-03*  0.41   2.50    LS   YES    0:00:01
       61   1    6    0  -542.51008667   -0.27E-07* -0.77E-03   95 100 1  0.80E-04   0.41   0.65    QN   YES    0:00:01
       62   1    5    0  -542.51008676   -0.89E-07* -0.12E-02   95 100 1  0.88E-04   0.41   2.50    LS   YES    0:00:01
       63   1    6    0  -542.51008673    0.31E-07* -0.52E-03   95 100 1  0.10E-03*  0.41   0.35    LS   YES    0:00:01
       64   1    5    0  -542.51008677   -0.41E-07* -0.74E-04   95 100 1  0.95E-04   0.41   1.38    QN   YES    0:00:01
       65   1    5    0  -542.51008682   -0.51E-07*  0.43E-03   95 100 1  0.72E-04   0.41   1.47    QN   YES    0:00:01
       66   1    5    0  -542.51008687   -0.49E-07* -0.19E-03   90 101 1 -0.21E-04   0.41   1.42    QN   YES    0:00:01
       67   1    5    0  -542.51008688   -0.52E-08  -0.28E-03   90 101 1 -0.15E-04   0.41   2.50    LS   YES    0:00:01
      Convergence after 67 iterations
       68   1    5    0  -542.51008687    0.14E-08  -0.28E-03   95 100 1 -0.23E-04   0.41   2.50    LS   YES    0:00:01
 
      ************************************************************************************************************************
                                                      Wave function printout:
                       occupation of active orbitals, and spin coupling of open shells (u,d: Spin up or down)
      ************************************************************************************************************************
 
      Note: transformation to natural orbitals
      has been made, which may change the order of the CSFs.
 
      printout of CI-coefficients larger than  0.05 for root  1
      energy=  -30542.532787
      conf/sym  1111     Coeff  Weight
             1  uuu0   0.82401 0.67900
             2  uu0u  -0.08747 0.00765
             3  u0uu  -0.51790 0.26822
             4  0uuu   0.21243 0.04513
 
      printout of CI-coefficients larger than  0.05 for root  2
      energy=  -30542.526248
      conf/sym  1111     Coeff  Weight
             1  uuu0   0.40884 0.16715
             2  uu0u  -0.10386 0.01079
             3  u0uu   0.82357 0.67826
             4  0uuu   0.37921 0.14380
 
      printout of CI-coefficients larger than  0.05 for root  3
      energy=  -30542.495048
      conf/sym  1111     Coeff  Weight
             1  uuu0   0.34514 0.11912
             2  uu0u   0.70675 0.49950
             3  u0uu   0.18856 0.03556
             4  0uuu  -0.58806 0.34582
 
      printout of CI-coefficients larger than  0.05 for root  4
      energy=  -30542.486264
      conf/sym  1111     Coeff  Weight
             1  uuu0  -0.18636 0.03473
             2  uu0u   0.69430 0.48206
             3  u0uu  -0.13399 0.01795
             4  0uuu   0.68210 0.46526
 
      Natural orbitals and occupation numbers for root  1
      sym 1:   1.000000   1.000000   1.000000   0.000000
 
      Natural orbitals and occupation numbers for root  2
      sym 1:   1.000000   0.000000   1.000000   1.000000
 
      Natural orbitals and occupation numbers for root  3
      sym 1:   1.000000   1.000000  -0.000000   1.000000
 
      Natural orbitals and occupation numbers for root  4
      sym 1:  -0.000000   1.000000   1.000000   1.000000
 
      ************************************************************************************************************************
      *                                                                                                                      *
      *                                                    Final results                                                     *
      *                                                                                                                      *
      ************************************************************************************************************************
 
 
++    Wave function specifications:
      -----------------------------
 
      Number of closed shell electrons         190
      Number of electrons in active shells       3
      Max number of holes in RAS1 space          0
      Max nr of electrons in RAS3 space          0
      Number of inactive orbitals               95
      Number of active orbitals                  4
      Number of secondary orbitals              30
      Spin quantum number                      1.5
      State symmetry                             1
--
 
++    Orbital specifications:
      -----------------------
 
      Symmetry species                           1
                                                 a
      Frozen orbitals                            0
      Inactive orbitals                         95
      Active orbitals                            4
      RAS1 orbitals                              0
      RAS2 orbitals                              4
      RAS3 orbitals                              0
      Secondary orbitals                        30
      Deleted orbitals                           0
      Number of basis functions                129
--
 
++    CI expansion specifications:
      ----------------------------
 
      Number of CSFs                             4
      Number of determinants                     4
      Number of root(s) required                 4
      CI roots used                              1     2     3     4
      weights                                0.250 0.250 0.250 0.250
      highest root included in the CI            4
      Root passed to geometry opt.               4
--
 
++    Final optimization conditions:
      ------------------------------
 
      Average CI energy                          -30542.51008688
      RASSCF energy for state  4                 -30542.48626422
      Super-CI energy                                -0.00000000
      RASSCF energy change                            0.00000000
      Max change in MO coefficients               0.280E-03
      Max non-diagonal density matrix element    -0.281E-03
      Maximum BLB matrix element                 -0.231E-04
      (orbital pair  95, 100 in symmetry   1)
      Norm of electronic gradient            0.563E-01
--
 
 
      Final state energy(ies):
      ------------------------
 
::    RASSCF root number  1 Total energy: -30542.53278711
::    RASSCF root number  2 Total energy: -30542.52624808
::    RASSCF root number  3 Total energy: -30542.49504809
::    RASSCF root number  4 Total energy: -30542.48626422
 
++    Molecular orbitals:
      -------------------
 
      Pseudonatural active orbitals and approximate occupation numbers
 
 
 
 
      Molecular orbitals for symmetry species 1: a  
 
 
      Orbital                1         2         3         4         5         6         7         8         9        10
      Energy        -4488.4637 -854.1976 -711.9077 -711.9062 -711.9054 -220.5641 -180.5398 -180.5394 -180.5371 -143.8012
      Occ. No.          2.0000    2.0000    2.0000    2.0000    2.0000    2.0000    2.0000    2.0000    2.0000    2.0000
 
    1 C1     1s         0.0000    0.0000    0.0000    0.0000   -0.0000    0.0000    0.0000    0.0000   -0.0000   -0.0000
    2 C1     2s         0.0000    0.0000    0.0000    0.0000   -0.0000    0.0000    0.0000    0.0000   -0.0000   -0.0000
    3 C1     2px       -0.0000   -0.0000    0.0000    0.0000   -0.0000   -0.0000    0.0000    0.0000   -0.0000   -0.0000
    4 C1     2py        0.0000    0.0000   -0.0000   -0.0000   -0.0000    0.0000   -0.0000   -0.0000   -0.0000    0.0000
    5 C1     2pz       -0.0000   -0.0000   -0.0000   -0.0000    0.0000   -0.0000   -0.0000   -0.0000    0.0000    0.0000
    6 C2     1s        -0.0000   -0.0000    0.0000    0.0000   -0.0000   -0.0000    0.0000    0.0000   -0.0000   -0.0000
    7 C2     2s        -0.0000   -0.0000    0.0000    0.0000   -0.0000   -0.0000    0.0000    0.0000   -0.0000   -0.0000
    8 C2     2px       -0.0000   -0.0000   -0.0000   -0.0000   -0.0000   -0.0000   -0.0000   -0.0000   -0.0000    0.0000
    9 C2     2py        0.0000    0.0000    0.0000    0.0000   -0.0000    0.0000    0.0000    0.0000   -0.0000   -0.0000
   10 C2     2pz       -0.0000   -0.0000   -0.0000    0.0000    0.0000   -0.0000   -0.0000    0.0000    0.0000   -0.0000
   11 C3     1s        -0.0000   -0.0000   -0.0000   -0.0000    0.0000   -0.0000   -0.0000   -0.0000    0.0000    0.0000
   12 C3     2s        -0.0000   -0.0000    0.0000   -0.0000    0.0000   -0.0000    0.0000   -0.0000    0.0000    0.0000
   13 C3     2px        0.0000    0.0000   -0.0000    0.0000   -0.0000    0.0000   -0.0000    0.0000   -0.0000    0.0000
   14 C3     2py       -0.0000   -0.0000    0.0000   -0.0000   -0.0000   -0.0000    0.0000   -0.0000   -0.0000   -0.0000
   15 C3     2pz        0.0000    0.0000    0.0000    0.0000   -0.0000    0.0000   -0.0000    0.0000   -0.0000    0.0000
   16 C4     1s         0.0000    0.0000    0.0000    0.0000   -0.0000    0.0000    0.0000    0.0000   -0.0000    0.0000
   17 C4     2s         0.0000    0.0000    0.0000    0.0000   -0.0000    0.0000    0.0000    0.0000   -0.0000   -0.0000
   18 C4     2px        0.0000    0.0000    0.0000    0.0000   -0.0000    0.0000    0.0000    0.0000   -0.0000   -0.0000
   19 C4     2py       -0.0000   -0.0000   -0.0000   -0.0000    0.0000   -0.0000   -0.0000   -0.0000    0.0000    0.0000
   20 C4     2pz        0.0000    0.0000    0.0000    0.0000   -0.0000    0.0000   -0.0000    0.0000   -0.0000   -0.0000
   21 C5     1s         0.0000    0.0000    0.0000    0.0000   -0.0000    0.0000    0.0000    0.0000   -0.0000   -0.0000
   22 C5     2s         0.0000    0.0000    0.0000    0.0000   -0.0000    0.0000    0.0000    0.0000   -0.0000   -0.0000
   23 C5     2px        0.0000    0.0000    0.0000    0.0000   -0.0000    0.0000    0.0000    0.0000   -0.0000   -0.0000
   24 C5     2py       -0.0000   -0.0000   -0.0000   -0.0000    0.0000   -0.0000   -0.0000   -0.0000    0.0000    0.0000
   25 C5     2pz        0.0000    0.0000    0.0000    0.0000   -0.0000    0.0000    0.0000    0.0000   -0.0000   -0.0000
   26 C6     1s        -0.0000   -0.0000   -0.0000   -0.0000    0.0000   -0.0000   -0.0000   -0.0000    0.0000    0.0000
   27 C6     2s         0.0000    0.0000   -0.0000   -0.0000    0.0000    0.0000   -0.0000   -0.0000    0.0000    0.0000
   28 C6     2px        0.0000    0.0000    0.0000    0.0000   -0.0000    0.0000    0.0000    0.0000   -0.0000    0.0000
   29 C6     2py       -0.0000   -0.0000   -0.0000   -0.0000   -0.0000   -0.0000   -0.0000   -0.0000   -0.0000   -0.0000
   30 C6     2pz        0.0000    0.0000    0.0000   -0.0000   -0.0000    0.0000    0.0000    0.0000   -0.0000    0.0000
   31 S7     1s        -0.0000   -0.0000    0.0000   -0.0000    0.0000   -0.0000    0.0000   -0.0000    0.0000   -0.0000
   32 S7     2s        -0.0000   -0.0000    0.0000   -0.0000    0.0000   -0.0000    0.0000   -0.0000    0.0000   -0.0000
   33 S7     3s        -0.0000   -0.0000   -0.0000   -0.0000    0.0000   -0.0000    0.0000   -0.0000    0.0000    0.0000
   34 S7     2px        0.0000   -0.0000    0.0000   -0.0000    0.0000    0.0000    0.0000   -0.0000    0.0000   -0.0000
   35 S7     3px        0.0000    0.0000    0.0000   -0.0000    0.0000    0.0000    0.0000   -0.0000    0.0000   -0.0000
   36 S7     2py       -0.0000    0.0000   -0.0000    0.0000   -0.0000   -0.0000   -0.0000    0.0000   -0.0000    0.0000
   37 S7     3py       -0.0000   -0.0000   -0.0000    0.0000   -0.0000   -0.0000   -0.0000    0.0000   -0.0000    0.0000
   38 S7     2pz       -0.0000   -0.0000    0.0000    0.0000   -0.0000   -0.0000    0.0000    0.0000   -0.0000   -0.0000
   39 S7     3pz       -0.0000   -0.0000    0.0000    0.0000   -0.0000   -0.0000    0.0000    0.0000   -0.0000   -0.0000
   40 O8     1s         0.0000    0.0000   -0.0000   -0.0000    0.0000    0.0000    0.0000   -0.0000    0.0000    0.0000
   41 O8     2s         0.0000    0.0000   -0.0000    0.0000    0.0000    0.0000   -0.0000    0.0000    0.0000    0.0000
   42 O8     2px        0.0000    0.0000    0.0000   -0.0000   -0.0000    0.0000    0.0000    0.0000   -0.0000   -0.0000
   43 O8     2py       -0.0000   -0.0000    0.0000   -0.0000    0.0000   -0.0000    0.0000   -0.0000    0.0000   -0.0000
   44 O8     2pz        0.0000    0.0000    0.0000    0.0000   -0.0000    0.0000    0.0000    0.0000   -0.0000   -0.0000
   45 PU9    1s         1.0000   -0.0000   -0.0000   -0.0000    0.0000    0.0000    0.0000    0.0000   -0.0000    0.0000
   46 PU9    2s         0.0000    1.0000   -0.0000   -0.0000    0.0000   -0.0000    0.0000   -0.0000    0.0000    0.0000
   47 PU9    3s        -0.0000    0.0000    0.0000    0.0000   -0.0000    1.0000    0.0000   -0.0000    0.0000    0.0000
   48 PU9    4s         0.0000   -0.0000   -0.0000    0.0000    0.0000   -0.0000    0.0000    0.0000   -0.0000   -0.0000
   49 PU9    5s        -0.0000    0.0000    0.0000   -0.0000   -0.0000   -0.0000   -0.0000   -0.0000    0.0000    0.0000
   50 PU9    6s         0.0000   -0.0000   -0.0000    0.0000    0.0000    0.0000    0.0000    0.0000   -0.0000   -0.0000
   51 PU9    7s        -0.0000    0.0000   -0.0000    0.0000   -0.0000   -0.0000   -0.0000    0.0000    0.0000   -0.0000
   52 PU9    2px        0.0000    0.0000   -0.0001    0.9130    0.4080   -0.0000    0.0000   -0.0000   -0.0000   -0.0000
   53 PU9    3px        0.0000    0.0000   -0.0000    0.0000    0.0000    0.0000   -0.1080    0.8818    0.4592   -0.0000
   54 PU9    4px       -0.0000   -0.0000    0.0000   -0.0000   -0.0000   -0.0000    0.0000   -0.0000   -0.0000    0.0000
   55 PU9    5px        0.0000    0.0000   -0.0000    0.0000    0.0000    0.0000    0.0000   -0.0000   -0.0000   -0.0000
   56 PU9    6px       -0.0000   -0.0000   -0.0000   -0.0000   -0.0000   -0.0000    0.0000   -0.0000   -0.0000   -0.0000
   57 PU9    7px       -0.0000   -0.0000   -0.0000    0.0000    0.0000   -0.0000   -0.0000    0.0000    0.0000   -0.0000
   58 PU9    2py       -0.0000   -0.0000    0.0315   -0.4077    0.9126    0.0000   -0.0000    0.0000   -0.0000    0.0000
   59 PU9    3py        0.0000   -0.0000    0.0000   -0.0000    0.0000   -0.0000    0.0840   -0.4521    0.8880    0.0000
   60 PU9    4py       -0.0000    0.0000   -0.0000    0.0000   -0.0000   -0.0000   -0.0000    0.0000   -0.0000   -0.0000
   61 PU9    5py        0.0000   -0.0000    0.0000   -0.0000    0.0000    0.0000   -0.0000    0.0000   -0.0000   -0.0000
   62 PU9    6py       -0.0000   -0.0000   -0.0000    0.0000   -0.0000   -0.0000   -0.0000    0.0000   -0.0000    0.0000
   63 PU9    7py       -0.0000   -0.0000    0.0000   -0.0000    0.0000   -0.0000    0.0000   -0.0000    0.0000    0.0000
   64 PU9    2pz        0.0000    0.0000    0.9995    0.0130   -0.0287   -0.0000   -0.0000   -0.0000    0.0000   -0.0000
   65 PU9    3pz       -0.0000    0.0000    0.0000    0.0000   -0.0000    0.0000    0.9906    0.1345   -0.0252   -0.0000
   66 PU9    4pz        0.0000   -0.0000   -0.0000   -0.0000    0.0000    0.0000   -0.0000   -0.0000    0.0000    0.0000
   67 PU9    5pz       -0.0000    0.0000    0.0000    0.0000   -0.0000   -0.0000   -0.0000   -0.0000    0.0000   -0.0000
   68 PU9    6pz       -0.0000   -0.0000   -0.0000   -0.0000    0.0000   -0.0000    0.0000    0.0000    0.0000    0.0000
   69 PU9    7pz       -0.0000   -0.0000    0.0000   -0.0000   -0.0000   -0.0000    0.0000    0.0000   -0.0000    0.0000
   70 PU9    3d2-      -0.0000   -0.0000    0.0000   -0.0000    0.0000   -0.0000    0.0000   -0.0000    0.0000    0.0313
   71 PU9    4d2-      -0.0000    0.0000   -0.0000    0.0000   -0.0000   -0.0000    0.0000   -0.0000   -0.0000   -0.0000
   72 PU9    5d2-       0.0000   -0.0000    0.0000   -0.0000    0.0000    0.0000   -0.0000    0.0000   -0.0000    0.0000
   73 PU9    6d2-       0.0000    0.0000    0.0000   -0.0000   -0.0000    0.0000    0.0000   -0.0000    0.0000   -0.0000
   74 PU9    3d1-       0.0000    0.0000   -0.0000   -0.0000    0.0000    0.0000   -0.0000   -0.0000    0.0000   -0.4244
   75 PU9    4d1-      -0.0000   -0.0000    0.0000    0.0000   -0.0000    0.0000   -0.0000   -0.0000    0.0000    0.0000
   76 PU9    5d1-       0.0000    0.0000   -0.0000   -0.0000    0.0000   -0.0000    0.0000    0.0000   -0.0000   -0.0000
   77 PU9    6d1-       0.0000   -0.0000   -0.0000   -0.0000   -0.0000    0.0000   -0.0000   -0.0000    0.0000    0.0000
   78 PU9    3d0        0.0000    0.0000    0.0000   -0.0000    0.0000    0.0000    0.0000   -0.0000    0.0000    0.0059
   79 PU9    4d0       -0.0000   -0.0000   -0.0000    0.0000   -0.0000    0.0000    0.0000   -0.0000    0.0000   -0.0000
   80 PU9    5d0        0.0000    0.0000    0.0000   -0.0000    0.0000   -0.0000   -0.0000    0.0000   -0.0000    0.0000
   81 PU9    6d0        0.0000   -0.0000    0.0000   -0.0000   -0.0000    0.0000    0.0000   -0.0000   -0.0000   -0.0000
   82 PU9    3d1+       0.0000   -0.0000    0.0000    0.0000    0.0000   -0.0000    0.0000    0.0000    0.0000    0.9048
   83 PU9    4d1+       0.0000   -0.0000   -0.0000   -0.0000   -0.0000    0.0000    0.0000    0.0000    0.0000   -0.0000
   84 PU9    5d1+      -0.0000    0.0000    0.0000    0.0000    0.0000   -0.0000   -0.0000   -0.0000   -0.0000    0.0000
   85 PU9    6d1+       0.0000    0.0000   -0.0000   -0.0000   -0.0000    0.0000    0.0000    0.0000    0.0000   -0.0000
   86 PU9    3d2+       0.0000    0.0000    0.0000    0.0000    0.0000    0.0000   -0.0000    0.0000    0.0000    0.0116
   87 PU9    4d2+       0.0000   -0.0000   -0.0000   -0.0000   -0.0000    0.0000   -0.0000    0.0000    0.0000   -0.0000
   88 PU9    5d2+      -0.0000    0.0000    0.0000    0.0000    0.0000   -0.0000    0.0000   -0.0000   -0.0000    0.0000
   89 PU9    6d2+      -0.0000   -0.0000   -0.0000    0.0000   -0.0000   -0.0000   -0.0000    0.0000    0.0000   -0.0000
   90 PU9    4f3-       0.0000   -0.0000    0.0000   -0.0000    0.0000   -0.0000    0.0000   -0.0000    0.0000    0.0000
   91 PU9    5f3-       0.0000    0.0000    0.0000    0.0000   -0.0000    0.0000   -0.0000    0.0000    0.0000   -0.0000
   92 PU9    4f2-      -0.0000   -0.0000   -0.0000    0.0000    0.0000    0.0000   -0.0000   -0.0000    0.0000   -0.0000
   93 PU9    5f2-       0.0000    0.0000    0.0000   -0.0000   -0.0000    0.0000    0.0000   -0.0000   -0.0000    0.0000
   94 PU9    4f1-      -0.0000   -0.0000    0.0000   -0.0000    0.0000    0.0000    0.0000   -0.0000    0.0000   -0.0000
   95 PU9    5f1-       0.0000    0.0000    0.0000    0.0000   -0.0000   -0.0000    0.0000    0.0000   -0.0000    0.0000
   96 PU9    4f0       -0.0000   -0.0000    0.0000    0.0000   -0.0000   -0.0000   -0.0000   -0.0000   -0.0000   -0.0000
   97 PU9    5f0       -0.0000   -0.0000    0.0000   -0.0000    0.0000   -0.0000    0.0000    0.0000    0.0000    0.0000
   98 PU9    4f1+       0.0000   -0.0000    0.0000    0.0000    0.0000   -0.0000   -0.0000    0.0000    0.0000    0.0000
   99 PU9    5f1+       0.0000    0.0000    0.0000   -0.0000   -0.0000    0.0000    0.0000   -0.0000   -0.0000   -0.0000
  100 PU9    4f2+      -0.0000    0.0000    0.0000    0.0000   -0.0000    0.0000    0.0000    0.0000   -0.0000    0.0000
  101 PU9    5f2+      -0.0000   -0.0000   -0.0000   -0.0000    0.0000   -0.0000   -0.0000   -0.0000    0.0000   -0.0000
  102 PU9    4f3+      -0.0000    0.0000    0.0000   -0.0000    0.0000    0.0000    0.0000    0.0000    0.0000    0.0000
  103 PU9    5f3+      -0.0000   -0.0000   -0.0000    0.0000   -0.0000   -0.0000    0.0000   -0.0000   -0.0000   -0.0000
  104 O10    1s         0.0000    0.0000    0.0000   -0.0000    0.0000    0.0000    0.0000    0.0000    0.0000    0.0000
  105 O10    2s        -0.0000    0.0000    0.0000   -0.0000    0.0000   -0.0000    0.0000    0.0000    0.0000    0.0000
  106 O10    2px       -0.0000   -0.0000   -0.0000   -0.0000   -0.0000   -0.0000    0.0000   -0.0000   -0.0000   -0.0000
  107 O10    2py       -0.0000   -0.0000    0.0000    0.0000   -0.0000   -0.0000   -0.0000    0.0000   -0.0000    0.0000
  108 O10    2pz       -0.0000   -0.0000    0.0000    0.0000    0.0000   -0.0000    0.0000    0.0000    0.0000    0.0000
  109 O11    1s         0.0000    0.0000   -0.0000   -0.0000   -0.0000    0.0000    0.0000   -0.0000   -0.0000    0.0000
  110 O11    2s         0.0000    0.0000   -0.0000   -0.0000   -0.0000    0.0000    0.0000   -0.0000   -0.0000    0.0000
  111 O11    2px        0.0000    0.0000   -0.0000    0.0000    0.0000    0.0000   -0.0000    0.0000    0.0000    0.0000
  112 O11    2py       -0.0000   -0.0000   -0.0000    0.0000   -0.0000   -0.0000   -0.0000    0.0000   -0.0000    0.0000
  113 O11    2pz       -0.0000    0.0000    0.0000   -0.0000    0.0000    0.0000    0.0000    0.0000   -0.0000   -0.0000
  114 O12    1s         0.0000    0.0000   -0.0000   -0.0000   -0.0000    0.0000   -0.0000   -0.0000   -0.0000   -0.0000
  115 O12    2s         0.0000    0.0000   -0.0000   -0.0000   -0.0000    0.0000   -0.0000   -0.0000   -0.0000   -0.0000
  116 O12    2px       -0.0000   -0.0000   -0.0000    0.0000    0.0000   -0.0000   -0.0000    0.0000    0.0000   -0.0000
  117 O12    2py        0.0000    0.0000    0.0000   -0.0000   -0.0000    0.0000    0.0000   -0.0000   -0.0000    0.0000
  118 O12    2pz        0.0000    0.0000   -0.0000   -0.0000   -0.0000    0.0000   -0.0000   -0.0000   -0.0000    0.0000
  119 H13    1s        -0.0000   -0.0000    0.0000    0.0000    0.0000   -0.0000    0.0000    0.0000    0.0000    0.0000
  120 O14    1s         0.0000    0.0000   -0.0000   -0.0000    0.0000    0.0000   -0.0000   -0.0000    0.0000   -0.0000
  121 O14    2s        -0.0000    0.0000   -0.0000    0.0000    0.0000   -0.0000   -0.0000   -0.0000    0.0000   -0.0000
  122 O14    2px        0.0000    0.0000    0.0000   -0.0000   -0.0000    0.0000   -0.0000   -0.0000   -0.0000    0.0000
  123 O14    2py        0.0000    0.0000   -0.0000    0.0000   -0.0000    0.0000    0.0000    0.0000   -0.0000   -0.0000
  124 O14    2pz        0.0000    0.0000    0.0000   -0.0000   -0.0000    0.0000    0.0000   -0.0000   -0.0000    0.0000
  125 H15    1s         0.0000    0.0000    0.0000    0.0000   -0.0000    0.0000   -0.0000    0.0000   -0.0000   -0.0000
  126 H16    1s         0.0000    0.0000    0.0000    0.0000   -0.0000    0.0000    0.0000    0.0000   -0.0000   -0.0000
  127 H17    1s         0.0000    0.0000    0.0000    0.0000   -0.0000    0.0000    0.0000    0.0000   -0.0000   -0.0000
  128 H18    1s         0.0000    0.0000    0.0000    0.0000   -0.0000    0.0000    0.0000    0.0000   -0.0000   -0.0000
  129 H19    1s        -0.0000   -0.0000   -0.0000   -0.0000    0.0000   -0.0000   -0.0000   -0.0000    0.0000    0.0000
 
 
      Orbital               11        12        13        14        15        16        17        18        19        20
      Energy         -143.8002 -143.7998 -143.7992 -143.7988  -92.4056  -58.7125  -45.3701  -45.3665  -45.3623  -31.2891
      Occ. No.          2.0000    2.0000    2.0000    2.0000    2.0000    2.0000    2.0000    2.0000    2.0000    2.0000
 
    1 C1     1s         0.0000    0.0000    0.0000   -0.0000   -0.0000    0.0000    0.0000    0.0000   -0.0000   -0.0000
    2 C1     2s         0.0000    0.0000    0.0000   -0.0000   -0.0000    0.0000    0.0000    0.0000   -0.0000    0.0000
    3 C1     2px       -0.0000    0.0000    0.0000    0.0000   -0.0000   -0.0000    0.0000    0.0000   -0.0000    0.0000
    4 C1     2py        0.0000   -0.0000   -0.0000    0.0000    0.0000    0.0000   -0.0000   -0.0000    0.0000   -0.0000
    5 C1     2pz        0.0000   -0.0000   -0.0000    0.0000   -0.0000   -0.0000   -0.0000   -0.0000    0.0000   -0.0000
    6 C2     1s         0.0000    0.0000    0.0000   -0.0000   -0.0000    0.0000    0.0000    0.0000   -0.0000   -0.0000
    7 C2     2s         0.0000    0.0000    0.0000   -0.0000   -0.0000   -0.0000    0.0000    0.0000   -0.0000   -0.0000
    8 C2     2px        0.0000    0.0000    0.0000    0.0000    0.0000   -0.0000   -0.0000   -0.0000   -0.0000    0.0000
    9 C2     2py       -0.0000    0.0000    0.0000    0.0000   -0.0000    0.0000    0.0000    0.0000   -0.0000    0.0000
   10 C2     2pz        0.0000    0.0000   -0.0000    0.0000    0.0000   -0.0000   -0.0000   -0.0000    0.0000   -0.0000
   11 C3     1s         0.0000   -0.0000   -0.0000   -0.0000    0.0000   -0.0000   -0.0000   -0.0000    0.0000    0.0000
   12 C3     2s         0.0000   -0.0000   -0.0000   -0.0000   -0.0000    0.0000   -0.0000   -0.0000    0.0000    0.0000
   13 C3     2px        0.0000   -0.0000   -0.0000    0.0000   -0.0000    0.0000   -0.0000   -0.0000   -0.0000    0.0000
   14 C3     2py       -0.0000    0.0000    0.0000    0.0000    0.0000   -0.0000    0.0000    0.0000   -0.0000    0.0000
   15 C3     2pz       -0.0000   -0.0000   -0.0000    0.0000   -0.0000    0.0000   -0.0000    0.0000   -0.0000    0.0000
   16 C4     1s         0.0000   -0.0000   -0.0000    0.0000   -0.0000    0.0000    0.0000    0.0000   -0.0000    0.0000
   17 C4     2s         0.0000    0.0000   -0.0000   -0.0000   -0.0000    0.0000    0.0000    0.0000   -0.0000    0.0000
   18 C4     2px        0.0000    0.0000   -0.0000   -0.0000   -0.0000    0.0000    0.0000    0.0000   -0.0000   -0.0000
   19 C4     2py       -0.0000   -0.0000    0.0000   -0.0000    0.0000   -0.0000   -0.0000   -0.0000    0.0000    0.0000
   20 C4     2pz        0.0000    0.0000   -0.0000    0.0000   -0.0000    0.0000   -0.0000    0.0000   -0.0000   -0.0000
   21 C5     1s        -0.0000    0.0000    0.0000   -0.0000   -0.0000    0.0000    0.0000    0.0000   -0.0000    0.0000
   22 C5     2s        -0.0000    0.0000    0.0000   -0.0000    0.0000    0.0000    0.0000    0.0000   -0.0000    0.0000
   23 C5     2px       -0.0000    0.0000    0.0000   -0.0000    0.0000    0.0000    0.0000    0.0000   -0.0000    0.0000
   24 C5     2py        0.0000   -0.0000   -0.0000    0.0000   -0.0000   -0.0000   -0.0000   -0.0000    0.0000   -0.0000
   25 C5     2pz       -0.0000    0.0000    0.0000   -0.0000    0.0000    0.0000    0.0000    0.0000   -0.0000    0.0000
   26 C6     1s         0.0000   -0.0000   -0.0000    0.0000   -0.0000    0.0000   -0.0000   -0.0000    0.0000   -0.0000
   27 C6     2s         0.0000   -0.0000   -0.0000    0.0000   -0.0000    0.0000   -0.0000   -0.0000    0.0000   -0.0000
   28 C6     2px       -0.0000    0.0000    0.0000    0.0000   -0.0000    0.0000    0.0000   -0.0000   -0.0000    0.0000
   29 C6     2py        0.0000    0.0000    0.0000    0.0000    0.0000   -0.0000   -0.0000   -0.0000   -0.0000   -0.0000
   30 C6     2pz       -0.0000   -0.0000   -0.0000   -0.0000   -0.0000    0.0000    0.0000   -0.0000    0.0000    0.0000
   31 S7     1s        -0.0000    0.0000   -0.0000    0.0000    1.0000   -0.0000    0.0000   -0.0000    0.0000    0.0000
   32 S7     2s        -0.0000    0.0000   -0.0000    0.0000   -0.0000   -0.0000    0.0000   -0.0000    0.0000    0.0000
   33 S7     3s         0.0000    0.0000   -0.0000    0.0000   -0.0004   -0.0000    0.0000   -0.0000    0.0000    0.0000
   34 S7     2px       -0.0000    0.0000   -0.0000    0.0000    0.0001    0.0000    0.0000   -0.0000    0.0000    0.0000
   35 S7     3px       -0.0000    0.0000   -0.0000    0.0000   -0.0000    0.0000    0.0000   -0.0000    0.0000    0.0000
   36 S7     2py        0.0000   -0.0000    0.0000   -0.0000   -0.0001   -0.0000   -0.0000    0.0000   -0.0000   -0.0000
   37 S7     3py        0.0000   -0.0000    0.0000   -0.0000    0.0000   -0.0000   -0.0000    0.0000   -0.0000   -0.0000
   38 S7     2pz        0.0000    0.0000   -0.0000   -0.0000   -0.0001   -0.0000    0.0000   -0.0000    0.0000   -0.0000
   39 S7     3pz        0.0000    0.0000    0.0000   -0.0000    0.0000   -0.0000    0.0000   -0.0000    0.0000   -0.0000
   40 O8     1s        -0.0000    0.0000   -0.0000   -0.0000    0.0000    0.0000   -0.0000   -0.0000    0.0000    0.0000
   41 O8     2s         0.0000    0.0000   -0.0000   -0.0000    0.0000    0.0000   -0.0000   -0.0000    0.0000    0.0000
   42 O8     2px        0.0000    0.0000   -0.0000   -0.0000   -0.0000    0.0000    0.0000   -0.0000    0.0000    0.0000
   43 O8     2py       -0.0000    0.0000    0.0000   -0.0000   -0.0000   -0.0000    0.0000   -0.0000    0.0000    0.0000
   44 O8     2pz       -0.0000    0.0000    0.0000    0.0000   -0.0000    0.0000    0.0000    0.0000   -0.0000   -0.0000
   45 PU9    1s        -0.0000   -0.0000    0.0000   -0.0000   -0.0000   -0.0000   -0.0000    0.0000    0.0000   -0.0000
   46 PU9    2s        -0.0000   -0.0000    0.0000   -0.0000   -0.0000    0.0000    0.0000    0.0000   -0.0000    0.0000
   47 PU9    3s        -0.0000   -0.0000    0.0000   -0.0000   -0.0000    0.0000   -0.0000   -0.0000    0.0000   -0.0000
   48 PU9    4s         0.0000    0.0000   -0.0000    0.0000   -0.0000    1.0000   -0.0000   -0.0001    0.0001   -0.0001
   49 PU9    5s        -0.0000   -0.0000    0.0000   -0.0000   -0.0000   -0.0002    0.0000    0.0000   -0.0000    0.0004
   50 PU9    6s         0.0000    0.0000   -0.0000    0.0000   -0.0000    0.0000   -0.0000    0.0000    0.0000   -0.0001
   51 PU9    7s        -0.0000   -0.0000    0.0000   -0.0000   -0.0000   -0.0000   -0.0000    0.0000   -0.0000   -0.0000
   52 PU9    2px        0.0000   -0.0000    0.0000   -0.0000    0.0000   -0.0000   -0.0000    0.0000    0.0000   -0.0000
   53 PU9    3px        0.0000   -0.0000    0.0000   -0.0000    0.0000   -0.0000   -0.0000    0.0000    0.0000    0.0000
   54 PU9    4px       -0.0000    0.0000   -0.0000    0.0000    0.0000    0.0001   -0.0191    0.8857    0.4639    0.0001
   55 PU9    5px        0.0000   -0.0000   -0.0000   -0.0000    0.0000   -0.0000    0.0000   -0.0001   -0.0001   -0.0000
   56 PU9    6px       -0.0000   -0.0000    0.0000    0.0000    0.0000    0.0000   -0.0000    0.0000    0.0000    0.0000
   57 PU9    7px       -0.0000   -0.0000   -0.0000   -0.0000    0.0000   -0.0000   -0.0000   -0.0000   -0.0000    0.0000
   58 PU9    2py       -0.0000   -0.0000   -0.0000   -0.0000   -0.0000   -0.0000    0.0000   -0.0000    0.0000    0.0000
   59 PU9    3py       -0.0000   -0.0000   -0.0000   -0.0000   -0.0000    0.0000    0.0000   -0.0000    0.0000   -0.0000
   60 PU9    4py        0.0000    0.0000    0.0000   -0.0000   -0.0000   -0.0001    0.0403   -0.4629    0.8855   -0.0000
   61 PU9    5py       -0.0000   -0.0000   -0.0000    0.0000   -0.0000   -0.0000    0.0000    0.0001   -0.0001   -0.0000
   62 PU9    6py        0.0000   -0.0000    0.0000   -0.0000   -0.0000   -0.0000    0.0000   -0.0000    0.0001   -0.0000
   63 PU9    7py        0.0000   -0.0000    0.0000    0.0000   -0.0000   -0.0000    0.0000    0.0000   -0.0000   -0.0000
   64 PU9    2pz       -0.0000    0.0000    0.0000   -0.0000   -0.0000    0.0000    0.0000    0.0000   -0.0000    0.0000
   65 PU9    3pz       -0.0000    0.0000    0.0000   -0.0000   -0.0000   -0.0000    0.0000    0.0000   -0.0000   -0.0000
   66 PU9    4pz        0.0000   -0.0000   -0.0000    0.0000   -0.0000    0.0000    0.9990    0.0356   -0.0269   -0.0000
   67 PU9    5pz       -0.0000    0.0000    0.0000   -0.0000   -0.0000    0.0000    0.0000   -0.0000    0.0000    0.0000
   68 PU9    6pz        0.0000   -0.0000   -0.0000   -0.0000   -0.0000   -0.0000    0.0000    0.0000   -0.0000   -0.0000
   69 PU9    7pz       -0.0000    0.0000   -0.0000   -0.0000   -0.0000   -0.0000   -0.0000   -0.0000    0.0000    0.0000
   70 PU9    3d2-       0.2917   -0.0137    0.9117   -0.2873    0.0000    0.0000   -0.0000    0.0000    0.0000    0.0000
   71 PU9    4d2-      -0.0000    0.0000   -0.0000    0.0000    0.0000   -0.0001    0.0000   -0.0001   -0.0000    0.1871
   72 PU9    5d2-       0.0000    0.0000    0.0000   -0.0000    0.0000   -0.0000   -0.0000   -0.0000   -0.0000    0.0001
   73 PU9    6d2-      -0.0000   -0.0000   -0.0000    0.0000    0.0000    0.0000    0.0000   -0.0000    0.0000    0.0000
   74 PU9    3d1-       0.0290    0.9032    0.0334    0.0461   -0.0000   -0.0000    0.0000    0.0000   -0.0000    0.0000
   75 PU9    4d1-      -0.0000   -0.0000   -0.0000   -0.0000   -0.0000    0.0000   -0.0001   -0.0000    0.0000    0.0575
   76 PU9    5d1-       0.0000    0.0000    0.0000    0.0000   -0.0000    0.0000   -0.0000   -0.0000    0.0000    0.0001
   77 PU9    6d1-       0.0000   -0.0000   -0.0000   -0.0000   -0.0000   -0.0000   -0.0000   -0.0000    0.0000    0.0000
   78 PU9    3d0        0.9543   -0.0256   -0.2606    0.1439    0.0000   -0.0000   -0.0000    0.0000    0.0000    0.0000
   79 PU9    4d0       -0.0000    0.0000    0.0000   -0.0000    0.0000    0.0002    0.0000   -0.0001    0.0000    0.9674
   80 PU9    5d0        0.0000   -0.0000   -0.0000   -0.0000    0.0000    0.0001    0.0000   -0.0000   -0.0000    0.0009
   81 PU9    6d0        0.0000    0.0000   -0.0000    0.0000    0.0000    0.0000    0.0000   -0.0000   -0.0000    0.0000
   82 PU9    3d1+      -0.0020    0.4249   -0.0182    0.0185    0.0000   -0.0000    0.0000   -0.0000   -0.0000   -0.0000
   83 PU9    4d1+       0.0000   -0.0000    0.0000   -0.0000    0.0000   -0.0000    0.0000    0.0000    0.0000   -0.0261
   84 PU9    5d1+      -0.0000    0.0000    0.0000    0.0000    0.0000    0.0000   -0.0000    0.0000    0.0000   -0.0000
   85 PU9    6d1+       0.0000   -0.0000   -0.0000   -0.0000    0.0000    0.0000    0.0000   -0.0000   -0.0000   -0.0000
   86 PU9    3d2+      -0.0580   -0.0526    0.3154    0.9457    0.0000   -0.0000   -0.0000   -0.0000   -0.0000   -0.0000
   87 PU9    4d2+       0.0000    0.0000   -0.0000   -0.0000    0.0000    0.0000    0.0000    0.0000    0.0001   -0.1586
   88 PU9    5d2+      -0.0000   -0.0000    0.0000    0.0000    0.0000    0.0000    0.0000    0.0000   -0.0000   -0.0001
   89 PU9    6d2+      -0.0000    0.0000   -0.0000   -0.0000    0.0000   -0.0000   -0.0000    0.0000    0.0000   -0.0000
   90 PU9    4f3-       0.0000    0.0000    0.0000   -0.0000   -0.0000   -0.0000    0.0000   -0.0001   -0.0000    0.0000
   91 PU9    5f3-      -0.0000   -0.0000   -0.0000    0.0000   -0.0000    0.0000    0.0000   -0.0000    0.0000    0.0000
   92 PU9    4f2-       0.0000    0.0000    0.0000   -0.0000    0.0000   -0.0000   -0.0000    0.0000    0.0000    0.0000
   93 PU9    5f2-      -0.0000    0.0000   -0.0000    0.0000    0.0000   -0.0000   -0.0000    0.0000    0.0000    0.0000
   94 PU9    4f1-      -0.0000    0.0000   -0.0000   -0.0000    0.0000   -0.0000    0.0000   -0.0001    0.0002   -0.0001
   95 PU9    5f1-       0.0000   -0.0000    0.0000    0.0000    0.0000    0.0000    0.0000   -0.0000    0.0000   -0.0000
   96 PU9    4f0        0.0000    0.0000   -0.0000    0.0000   -0.0000   -0.0000    0.0003    0.0000   -0.0000    0.0000
   97 PU9    5f0       -0.0000   -0.0000    0.0000   -0.0000   -0.0000    0.0000    0.0000    0.0000   -0.0000    0.0000
   98 PU9    4f1+       0.0000    0.0000   -0.0000   -0.0000   -0.0000   -0.0000   -0.0000    0.0001    0.0001    0.0000
   99 PU9    5f1+      -0.0000   -0.0000    0.0000    0.0000   -0.0000   -0.0000   -0.0000    0.0000    0.0000   -0.0000
  100 PU9    4f2+       0.0000    0.0000    0.0000    0.0000   -0.0000    0.0000    0.0000    0.0000   -0.0000   -0.0000
  101 PU9    5f2+      -0.0000   -0.0000   -0.0000   -0.0000    0.0000   -0.0000   -0.0000    0.0000   -0.0000   -0.0000
  102 PU9    4f3+       0.0000   -0.0000    0.0000    0.0000   -0.0000    0.0000    0.0000    0.0000    0.0001   -0.0000
  103 PU9    5f3+      -0.0000    0.0000   -0.0000   -0.0000   -0.0000   -0.0000   -0.0000    0.0000    0.0000   -0.0000
  104 O10    1s        -0.0000   -0.0000    0.0000   -0.0000    0.0000    0.0000    0.0000   -0.0000    0.0000    0.0000
  105 O10    2s        -0.0000   -0.0000    0.0000   -0.0000    0.0000    0.0000    0.0000   -0.0000    0.0000    0.0000
  106 O10    2px       -0.0000   -0.0000    0.0000   -0.0000   -0.0000   -0.0000    0.0000   -0.0000   -0.0000    0.0000
  107 O10    2py       -0.0000   -0.0000    0.0000   -0.0000    0.0000   -0.0000    0.0000    0.0000   -0.0000    0.0000
  108 O10    2pz       -0.0000   -0.0000    0.0000   -0.0000   -0.0000   -0.0000    0.0000    0.0000    0.0000    0.0000
  109 O11    1s        -0.0000   -0.0000   -0.0000    0.0000    0.0000    0.0000    0.0000   -0.0000   -0.0000    0.0000
  110 O11    2s         0.0000   -0.0000   -0.0000    0.0000    0.0000    0.0000   -0.0000   -0.0000   -0.0000    0.0000
  111 O11    2px        0.0000   -0.0000   -0.0000    0.0000    0.0000    0.0000   -0.0000    0.0000    0.0000    0.0000
  112 O11    2py       -0.0000   -0.0000   -0.0000   -0.0000    0.0000   -0.0000   -0.0000    0.0000    0.0000   -0.0000
  113 O11    2pz       -0.0000   -0.0000    0.0000    0.0000   -0.0000   -0.0000    0.0000    0.0000   -0.0000   -0.0000
  114 O12    1s        -0.0000   -0.0000   -0.0000    0.0000   -0.0000    0.0000   -0.0000    0.0000    0.0000    0.0000
  115 O12    2s         0.0000   -0.0000   -0.0000    0.0000   -0.0000    0.0000   -0.0000   -0.0000   -0.0000    0.0000
  116 O12    2px       -0.0000   -0.0000    0.0000    0.0000    0.0000   -0.0000   -0.0000    0.0000    0.0000    0.0000
  117 O12    2py        0.0000   -0.0000    0.0000   -0.0000    0.0000    0.0000    0.0000   -0.0000    0.0000   -0.0000
  118 O12    2pz       -0.0000    0.0000   -0.0000   -0.0000    0.0000    0.0000   -0.0000   -0.0000   -0.0000   -0.0000
  119 H13    1s         0.0000    0.0000    0.0000    0.0000   -0.0000   -0.0000    0.0000    0.0000    0.0000    0.0000
  120 O14    1s        -0.0000   -0.0000    0.0000   -0.0000    0.0000    0.0000   -0.0000   -0.0000    0.0000    0.0000
  121 O14    2s        -0.0000   -0.0000    0.0000   -0.0000    0.0000    0.0000   -0.0000    0.0000    0.0000    0.0000
  122 O14    2px        0.0000    0.0000    0.0000   -0.0000   -0.0000    0.0000    0.0000   -0.0000   -0.0000   -0.0000
  123 O14    2py       -0.0000    0.0000   -0.0000   -0.0000    0.0000    0.0000   -0.0000    0.0000   -0.0000    0.0000
  124 O14    2pz        0.0000   -0.0000   -0.0000    0.0000    0.0000    0.0000    0.0000   -0.0000   -0.0000   -0.0000
  125 H15    1s         0.0000    0.0000   -0.0000   -0.0000   -0.0000    0.0000   -0.0000    0.0000   -0.0000    0.0000
  126 H16    1s         0.0000    0.0000   -0.0000   -0.0000    0.0000    0.0000    0.0000    0.0000   -0.0000   -0.0000
  127 H17    1s         0.0000    0.0000   -0.0000   -0.0000    0.0000    0.0000    0.0000    0.0000   -0.0000    0.0000
  128 H18    1s        -0.0000    0.0000    0.0000   -0.0000    0.0000    0.0000    0.0000    0.0000   -0.0000    0.0000
  129 H19    1s        -0.0000   -0.0000   -0.0000   -0.0000    0.0000   -0.0000   -0.0000   -0.0000    0.0000    0.0000
 
 
      Orbital               21        22        23        24        25        26        27        28        29        30
      Energy          -31.2881  -31.2860  -31.2813  -31.2803  -20.3238  -20.3161  -20.2449  -20.2335  -20.1872  -16.8363
      Occ. No.          2.0000    2.0000    2.0000    2.0000    2.0000    2.0000    2.0000    2.0000    2.0000    2.0000
 
    1 C1     1s         0.0000   -0.0000   -0.0000   -0.0000   -0.0000   -0.0000    0.0000   -0.0000    0.0000   -0.0000
    2 C1     2s         0.0000   -0.0000   -0.0000   -0.0000   -0.0000   -0.0000    0.0000   -0.0000    0.0000   -0.0000
    3 C1     2px        0.0000   -0.0000   -0.0000   -0.0000   -0.0000   -0.0000    0.0000    0.0000    0.0000   -0.0000
    4 C1     2py       -0.0000   -0.0000   -0.0000    0.0000    0.0000    0.0000    0.0000    0.0000   -0.0000    0.0000
    5 C1     2pz       -0.0000    0.0000    0.0000    0.0000    0.0000    0.0000    0.0000   -0.0000   -0.0000   -0.0000
    6 C2     1s         0.0000   -0.0000   -0.0000   -0.0000    0.0000    0.0000   -0.0000   -0.0000   -0.0000   -0.0000
    7 C2     2s         0.0000   -0.0000    0.0000   -0.0000    0.0000    0.0000    0.0000   -0.0000   -0.0000   -0.0000
    8 C2     2px       -0.0000   -0.0000   -0.0000    0.0000    0.0000    0.0000   -0.0000   -0.0000   -0.0000   -0.0000
    9 C2     2py        0.0000   -0.0000   -0.0000   -0.0000   -0.0000   -0.0000   -0.0000   -0.0000    0.0000    0.0000
   10 C2     2pz        0.0000   -0.0000    0.0000    0.0000    0.0000    0.0000    0.0000   -0.0000   -0.0000   -0.0000
   11 C3     1s        -0.0000    0.0000    0.0000    0.0000    0.0000    0.0000   -0.0000    0.0000   -0.0000   -0.0000
   12 C3     2s        -0.0000    0.0000    0.0000    0.0000    0.0000    0.0000   -0.0000    0.0000   -0.0000   -0.0000
   13 C3     2px       -0.0000    0.0000   -0.0000    0.0000    0.0000    0.0000    0.0000   -0.0000   -0.0000   -0.0000
   14 C3     2py        0.0000   -0.0000   -0.0000   -0.0000   -0.0000   -0.0000   -0.0000    0.0000    0.0000    0.0000
   15 C3     2pz       -0.0000    0.0000    0.0000    0.0000   -0.0000    0.0000    0.0000   -0.0000   -0.0000   -0.0000
   16 C4     1s        -0.0000    0.0000    0.0000    0.0000    0.0000    0.0000    0.0000   -0.0000   -0.0000   -0.0000
   17 C4     2s         0.0000   -0.0000    0.0000    0.0000    0.0000    0.0000    0.0000   -0.0000   -0.0000   -0.0000
   18 C4     2px        0.0000   -0.0000    0.0000    0.0000    0.0000    0.0000    0.0000   -0.0000   -0.0000   -0.0000
   19 C4     2py       -0.0000    0.0000   -0.0000   -0.0000   -0.0000   -0.0000   -0.0000    0.0000    0.0000    0.0000
   20 C4     2pz        0.0000   -0.0000    0.0000    0.0000    0.0000    0.0000    0.0000   -0.0000   -0.0000   -0.0000
   21 C5     1s         0.0000   -0.0000    0.0000   -0.0000    0.0000    0.0000    0.0000   -0.0000   -0.0000   -0.0000
   22 C5     2s         0.0000   -0.0000    0.0000   -0.0000    0.0000    0.0000    0.0000   -0.0000   -0.0000   -0.0000
   23 C5     2px        0.0000   -0.0000    0.0000   -0.0000    0.0000    0.0000   -0.0000   -0.0000   -0.0000   -0.0000
   24 C5     2py       -0.0000    0.0000   -0.0000    0.0000   -0.0000   -0.0000   -0.0000   -0.0000    0.0000    0.0000
   25 C5     2pz        0.0000   -0.0000   -0.0000   -0.0000    0.0000    0.0000    0.0000   -0.0000   -0.0000    0.0000
   26 C6     1s        -0.0000    0.0000    0.0000    0.0000    0.0000    0.0000    0.0000   -0.0000   -0.0000   -0.0000
   27 C6     2s        -0.0000    0.0000    0.0000    0.0000    0.0000    0.0000    0.0000   -0.0000   -0.0000   -0.0000
   28 C6     2px        0.0000   -0.0000   -0.0000    0.0000   -0.0000    0.0000   -0.0000   -0.0000   -0.0000   -0.0000
   29 C6     2py       -0.0000   -0.0000   -0.0000   -0.0000    0.0000   -0.0000   -0.0000   -0.0000    0.0000    0.0000
   30 C6     2pz       -0.0000    0.0000    0.0000    0.0000    0.0000    0.0000    0.0000   -0.0000   -0.0000   -0.0000
   31 S7     1s         0.0000    0.0000    0.0000    0.0000    0.0000    0.0000    0.0000   -0.0000   -0.0000    0.0000
   32 S7     2s         0.0000    0.0000    0.0000    0.0000    0.0000    0.0000    0.0002   -0.0003   -0.0000    0.0000
   33 S7     3s         0.0000    0.0000    0.0000    0.0000    0.0000    0.0000    0.0009   -0.0010   -0.0000    0.0000
   34 S7     2px        0.0000   -0.0000    0.0000    0.0000    0.0000    0.0000    0.0001    0.0000   -0.0000   -0.0000
   35 S7     3px        0.0000   -0.0000    0.0000    0.0000    0.0000    0.0000    0.0009    0.0002   -0.0000   -0.0000
   36 S7     2py       -0.0000    0.0000   -0.0000   -0.0000   -0.0000   -0.0000    0.0000    0.0001    0.0000    0.0000
   37 S7     3py       -0.0000    0.0000   -0.0000   -0.0000   -0.0000   -0.0000    0.0001    0.0010    0.0000    0.0000
   38 S7     2pz        0.0000   -0.0000    0.0000    0.0000    0.0000   -0.0000   -0.0000    0.0000   -0.0000    0.0000
   39 S7     3pz        0.0000   -0.0000    0.0000    0.0000    0.0000   -0.0000   -0.0001    0.0000   -0.0000    0.0000
   40 O8     1s         0.0000   -0.0000    0.0000    0.0000   -0.0000   -0.0000   -1.0001    0.0012    0.0000   -0.0000
   41 O8     2s        -0.0000   -0.0000    0.0000    0.0000    0.0000    0.0000   -0.0018    0.0000   -0.0000   -0.0000
   42 O8     2px        0.0000   -0.0000    0.0000   -0.0000    0.0000    0.0000    0.0018    0.0000    0.0000   -0.0000
   43 O8     2py        0.0000   -0.0000   -0.0000   -0.0000    0.0000    0.0000    0.0006   -0.0001    0.0000    0.0000
   44 O8     2pz        0.0000   -0.0000   -0.0000   -0.0000    0.0000   -0.0000   -0.0001   -0.0000    0.0000   -0.0000
   45 PU9    1s        -0.0000    0.0000   -0.0000    0.0000   -0.0000   -0.0000    0.0000   -0.0000   -0.0000   -0.0000
   46 PU9    2s         0.0000    0.0000    0.0000   -0.0000   -0.0000   -0.0000    0.0000   -0.0000   -0.0000   -0.0000
   47 PU9    3s        -0.0000    0.0000   -0.0000    0.0000   -0.0000   -0.0000    0.0000   -0.0000   -0.0000    0.0000
   48 PU9    4s         0.0000    0.0000   -0.0001    0.0001   -0.0001   -0.0001    0.0000   -0.0000   -0.0000    0.0000
   49 PU9    5s         0.0000    0.0000    0.0001   -0.0001   -0.0002   -0.0002    0.0000   -0.0000   -0.0000   -0.0000
   50 PU9    6s        -0.0000   -0.0000   -0.0000    0.0000   -0.0006   -0.0006    0.0001   -0.0001   -0.0001   -0.0000
   51 PU9    7s         0.0000    0.0000    0.0000   -0.0000   -0.0006   -0.0006    0.0002   -0.0002   -0.0002   -0.0000
   52 PU9    2px        0.0000    0.0000    0.0000   -0.0000    0.0000    0.0000   -0.0000    0.0000   -0.0000   -0.0000
   53 PU9    3px       -0.0000   -0.0000   -0.0000    0.0000    0.0000    0.0000   -0.0000    0.0000   -0.0000   -0.0000
   54 PU9    4px       -0.0000   -0.0000   -0.0000    0.0001    0.0000    0.0000   -0.0000    0.0000   -0.0000   -0.0000
   55 PU9    5px        0.0000    0.0000    0.0000   -0.0000    0.0000    0.0000   -0.0000    0.0000   -0.0000    0.0000
   56 PU9    6px        0.0000   -0.0000   -0.0000    0.0000    0.0000    0.0000   -0.0001    0.0001   -0.0002   -0.0000
   57 PU9    7px        0.0000    0.0000    0.0000    0.0000    0.0000    0.0001   -0.0002    0.0002   -0.0003   -0.0000
   58 PU9    2py       -0.0000    0.0000    0.0000    0.0000    0.0000    0.0000    0.0000   -0.0000    0.0000   -0.0000
   59 PU9    3py        0.0000   -0.0000   -0.0000   -0.0000    0.0000    0.0000    0.0000   -0.0000    0.0000    0.0000
   60 PU9    4py        0.0000   -0.0000   -0.0001   -0.0000    0.0000    0.0000    0.0000   -0.0000    0.0000   -0.0000
   61 PU9    5py       -0.0000    0.0000   -0.0000    0.0000    0.0000    0.0000    0.0000   -0.0000    0.0000    0.0000
   62 PU9    6py       -0.0000   -0.0000   -0.0000   -0.0000    0.0000    0.0000    0.0001   -0.0001    0.0000    0.0000
   63 PU9    7py       -0.0000    0.0000   -0.0000   -0.0000   -0.0000   -0.0000    0.0002   -0.0002    0.0001    0.0000
   64 PU9    2pz        0.0000   -0.0000   -0.0000   -0.0000   -0.0000    0.0000   -0.0000    0.0000   -0.0000   -0.0000
   65 PU9    3pz       -0.0000    0.0000   -0.0000    0.0000   -0.0000    0.0000   -0.0000    0.0000   -0.0000    0.0000
   66 PU9    4pz       -0.0001    0.0001   -0.0000    0.0000   -0.0000    0.0000   -0.0000    0.0000   -0.0000   -0.0002
   67 PU9    5pz        0.0000   -0.0000    0.0000   -0.0000   -0.0001    0.0001   -0.0000    0.0000   -0.0000    0.0003
   68 PU9    6pz       -0.0000    0.0000    0.0000    0.0000   -0.0006    0.0006   -0.0000    0.0000   -0.0001    0.0000
   69 PU9    7pz       -0.0000    0.0000    0.0000    0.0000   -0.0005    0.0005   -0.0000    0.0000   -0.0001   -0.0001
   70 PU9    3d2-       0.0000    0.0000    0.0000    0.0000    0.0000    0.0000   -0.0000    0.0000    0.0000   -0.0000
   71 PU9    4d2-       0.0358    0.0134    0.1138    0.9750   -0.0000   -0.0000   -0.0000    0.0000    0.0000   -0.0000
   72 PU9    5d2-       0.0000    0.0000    0.0001    0.0007    0.0000    0.0000   -0.0000    0.0000    0.0000    0.0000
   73 PU9    6d2-       0.0000    0.0000    0.0000    0.0001    0.0000    0.0000   -0.0002    0.0001    0.0001   -0.0000
   74 PU9    3d1-      -0.0000    0.0000    0.0000   -0.0000    0.0000   -0.0000   -0.0000    0.0000    0.0000   -0.0000
   75 PU9    4d1-      -0.5043    0.8605    0.0430   -0.0094   -0.0000   -0.0000   -0.0000    0.0000    0.0000   -0.0001
   76 PU9    5d1-      -0.0004    0.0007    0.0000   -0.0000    0.0000   -0.0000   -0.0000    0.0000    0.0000   -0.0000
   77 PU9    6d1-      -0.0000    0.0001    0.0000   -0.0000   -0.0000   -0.0000   -0.0000    0.0000    0.0000    0.0000
   78 PU9    3d0        0.0000   -0.0000    0.0000   -0.0000   -0.0000   -0.0000   -0.0000    0.0000    0.0000   -0.0000
   79 PU9    4d0        0.0477   -0.0457    0.1367   -0.2028   -0.0000   -0.0000   -0.0000    0.0000    0.0000   -0.0000
   80 PU9    5d0        0.0000   -0.0000    0.0001   -0.0002   -0.0001   -0.0001   -0.0000    0.0000    0.0000    0.0000
   81 PU9    6d0        0.0000   -0.0000    0.0000   -0.0000   -0.0005   -0.0005   -0.0001    0.0001    0.0001    0.0000
   82 PU9    3d1+       0.0000    0.0000    0.0000   -0.0000   -0.0000   -0.0000    0.0000   -0.0000   -0.0000    0.0000
   83 PU9    4d1+       0.8614    0.5061    0.0030   -0.0339    0.0000   -0.0000    0.0000   -0.0000   -0.0000    0.0001
   84 PU9    5d1+       0.0007    0.0004    0.0000   -0.0000   -0.0000   -0.0000    0.0000   -0.0000   -0.0000   -0.0000
   85 PU9    6d1+       0.0001    0.0000    0.0000   -0.0000   -0.0000   -0.0000    0.0000   -0.0000   -0.0001    0.0000
   86 PU9    3d2+       0.0000   -0.0000    0.0000   -0.0000   -0.0000    0.0000   -0.0000   -0.0000   -0.0000    0.0000
   87 PU9    4d2+       0.0087   -0.0344    0.9831   -0.0841    0.0000    0.0000   -0.0000   -0.0000   -0.0000    0.0000
   88 PU9    5d2+       0.0000   -0.0000    0.0007   -0.0001   -0.0000    0.0000   -0.0000   -0.0000   -0.0000   -0.0000
   89 PU9    6d2+       0.0000   -0.0000    0.0001   -0.0000   -0.0000    0.0000   -0.0001   -0.0001   -0.0002   -0.0000
   90 PU9    4f3-       0.0000    0.0000   -0.0001    0.0001    0.0000    0.0000   -0.0000   -0.0000    0.0000   -0.0044
   91 PU9    5f3-      -0.0000    0.0000    0.0000    0.0000   -0.0000   -0.0000    0.0000   -0.0000    0.0000    0.0000
   92 PU9    4f2-      -0.0001   -0.0000    0.0000    0.0000    0.0000   -0.0000    0.0000   -0.0000    0.0000    0.1383
   93 PU9    5f2-      -0.0000   -0.0000   -0.0000    0.0000    0.0000   -0.0000    0.0000   -0.0000    0.0000   -0.0000
[...]
 ###    was used       41 times                                              ###
 ###                                                                         ###
 ###                                                                         ###
 ###############################################################################
 ###############################################################################
 ###############################################################################
 ###############################################################################
 ###                                                                         ###
 ###                                                                         ###
 ###    RunFile label ipCff                                                  ###
 ###    was used       41 times                                              ###
 ###                                                                         ###
 ###                                                                         ###
 ###############################################################################
 ###############################################################################
 ###############################################################################
 ###############################################################################
 ###                                                                         ###
 ###                                                                         ###
 ###    RunFile label ipExp                                                  ###
 ###    was used       41 times                                              ###
 ###                                                                         ###
 ###                                                                         ###
 ###############################################################################
 ###############################################################################
 ###############################################################################
 ###############################################################################
 ###                                                                         ###
 ###                                                                         ###
 ###    RunFile label IndS                                                   ###
 ###    was used       41 times                                              ###
 ###                                                                         ###
 ###                                                                         ###
 ###############################################################################
 ###############################################################################
 ###############################################################################
 ###############################################################################
 ###                                                                         ###
 ###                                                                         ###
 ###    RunFile label ip_Occ                                                 ###
 ###    was used       41 times                                              ###
 ###                                                                         ###
 ###                                                                         ###
 ###############################################################################
 ###############################################################################
 ###############################################################################
 ###############################################################################
 ###                                                                         ###
 ###                                                                         ###
 ###    RunFile label ipAkl                                                  ###
 ###    was used       41 times                                              ###
 ###                                                                         ###
 ###                                                                         ###
 ###############################################################################
 ###############################################################################
 ###############################################################################
 ###############################################################################
 ###                                                                         ###
 ###                                                                         ###
 ###    RunFile label ipBk                                                   ###
 ###    was used       41 times                                              ###
 ###                                                                         ###
 ###                                                                         ###
 ###############################################################################
 ###############################################################################
 ###############################################################################
 ###############################################################################
 ###                                                                         ###
 ###                                                                         ###
 ###    RunFile label nOpt                                                   ###
 ###    was used       41 times                                              ###
 ###                                                                         ###
 ###                                                                         ###
 ###############################################################################
 ###############################################################################
 ###############################################################################
 ###############################################################################
 ###                                                                         ###
 ###                                                                         ###
 ###    RunFile label Prjct                                                  ###
 ###    was used       41 times                                              ###
 ###                                                                         ###
 ###                                                                         ###
 ###############################################################################
 ###############################################################################
 ###############################################################################
 ###############################################################################
 ###                                                                         ###
 ###                                                                         ###
 ###    RunFile label Transf                                                 ###
 ###    was used       41 times                                              ###
 ###                                                                         ###
 ###                                                                         ###
 ###############################################################################
 ###############################################################################
 ###############################################################################
 ###############################################################################
 ###                                                                         ###
 ###                                                                         ###
 ###    RunFile label iCoSet                                                 ###
 ###    was used       41 times                                              ###
 ###                                                                         ###
 ###                                                                         ###
 ###############################################################################
 ###############################################################################
 ###############################################################################
 ###############################################################################
 ###                                                                         ###
 ###                                                                         ###
 ###    RunFile label nBasis_Cntrct                                          ###
 ###    was used       41 times                                              ###
 ###                                                                         ###
 ###                                                                         ###
 ###############################################################################
 ###############################################################################
 ###############################################################################
 ###############################################################################
 ###                                                                         ###
 ###                                                                         ###
 ###    RunFile label ipCff_Cntrct                                           ###
 ###    was used       41 times                                              ###
 ###                                                                         ###
 ###                                                                         ###
 ###############################################################################
 ###############################################################################
 ###############################################################################
 ###############################################################################
 ###                                                                         ###
 ###                                                                         ###
 ###    RunFile label ipCff_Prim                                             ###
 ###    was used       41 times                                              ###
 ###                                                                         ###
 ###                                                                         ###
 ###############################################################################
 ###############################################################################
 ###############################################################################
 ###############################################################################
 ###                                                                         ###
 ###                                                                         ###
 ###    RunFile label ipFockOp                                               ###
 ###    was used       41 times                                              ###
 ###                                                                         ###
 ###                                                                         ###
 ###############################################################################
 ###############################################################################
 ###############################################################################
 ###############################################################################
 ###                                                                         ###
 ###                                                                         ###
 ###    RunFile label IrrCmp                                                 ###
 ###    was used       41 times                                              ###
 ###                                                                         ###
 ###                                                                         ###
 ###############################################################################
 ###############################################################################
 ###############################################################################
 ###############################################################################
 ###                                                                         ###
 ###                                                                         ###
 ###    RunFile label iAOtSO                                                 ###
 ###    was used       41 times                                              ###
 ###                                                                         ###
 ###                                                                         ###
 ###############################################################################
 ###############################################################################
 ###############################################################################
 ###############################################################################
 ###                                                                         ###
 ###                                                                         ###
 ###    RunFile label iSOInf                                                 ###
 ###    was used       41 times                                              ###
 ###                                                                         ###
 ###                                                                         ###
 ###############################################################################
 ###############################################################################
 ###############################################################################
 ###############################################################################
 ###                                                                         ###
 ###                                                                         ###
 ###    RunFile label FragShell                                              ###
 ###    was used       41 times                                              ###
 ###                                                                         ###
 ###                                                                         ###
 ###############################################################################
 ###############################################################################
 ###############################################################################
 ###############################################################################
 ###                                                                         ###
 ###                                                                         ###
 ###    RunFile label AuxShell                                               ###
 ###    was used       41 times                                              ###
 ###                                                                         ###
 ###                                                                         ###
 ###############################################################################
 ###############################################################################
--- Stop Module: rasscf at Fri Nov 16 16:15:07 2018 /rc=_RC_ALL_IS_WELL_ ---
*** files: PuO2_C6H5_SO2_OH-m1-quartet.casscf.MB.LprOrb PuO2_C6H5_SO2_OH-m1-quartet.casscf.MB.rasscf.molden.4 PuO2_C6H5_SO2_OH-m1-quartet.casscf.MB.rasscf.molden.1
           PuO2_C6H5_SO2_OH-m1-quartet.casscf.MB.rasscf.molden.18 PuO2_C6H5_SO2_OH-m1-quartet.casscf.MB.rasscf.molden.12 PuO2_C6H5_SO2_OH-m1-quartet.casscf.MB.rasscf.molden
           PuO2_C6H5_SO2_OH-m1-quartet.casscf.MB.rasscf.molden.17 PuO2_C6H5_SO2_OH-m1-quartet.casscf.MB.rasscf.molden.8 PuO2_C6H5_SO2_OH-m1-quartet.casscf.MB.rasscf.molden.20
           PuO2_C6H5_SO2_OH-m1-quartet.casscf.MB.rasscf.molden.5 PuO2_C6H5_SO2_OH-m1-quartet.casscf.MB.rasscf.molden.15 PuO2_C6H5_SO2_OH-m1-quartet.casscf.MB.rasscf.molden.19
           PuO2_C6H5_SO2_OH-m1-quartet.casscf.MB.rasscf.molden.9 PuO2_C6H5_SO2_OH-m1-quartet.casscf.MB.rasscf.molden.11 PuO2_C6H5_SO2_OH-m1-quartet.casscf.MB.rasscf.molden.3
           PuO2_C6H5_SO2_OH-m1-quartet.casscf.MB.rasscf.molden.13 PuO2_C6H5_SO2_OH-m1-quartet.casscf.MB.rasscf.molden.10 PuO2_C6H5_SO2_OH-m1-quartet.casscf.MB.rasscf.molden.7
           PuO2_C6H5_SO2_OH-m1-quartet.casscf.MB.rasscf.molden.6 PuO2_C6H5_SO2_OH-m1-quartet.casscf.MB.rasscf.molden.16 PuO2_C6H5_SO2_OH-m1-quartet.casscf.MB.rasscf.molden.14
           PuO2_C6H5_SO2_OH-m1-quartet.casscf.MB.rasscf.molden.2 PuO2_C6H5_SO2_OH-m1-quartet.casscf.MB.LoProp.molden PuO2_C6H5_SO2_OH-m1-quartet.casscf.MB.RasOrb.5
           PuO2_C6H5_SO2_OH-m1-quartet.casscf.MB.RasOrb.10 PuO2_C6H5_SO2_OH-m1-quartet.casscf.MB.RasOrb.6 PuO2_C6H5_SO2_OH-m1-quartet.casscf.MB.RasOrb.14
           PuO2_C6H5_SO2_OH-m1-quartet.casscf.MB.RasOrb.11 PuO2_C6H5_SO2_OH-m1-quartet.casscf.MB.RasOrb PuO2_C6H5_SO2_OH-m1-quartet.casscf.MB.RasOrb.19
           PuO2_C6H5_SO2_OH-m1-quartet.casscf.MB.RasOrb.9 PuO2_C6H5_SO2_OH-m1-quartet.casscf.MB.RasOrb.7 PuO2_C6H5_SO2_OH-m1-quartet.casscf.MB.RasOrb.12
           PuO2_C6H5_SO2_OH-m1-quartet.casscf.MB.RasOrb.4 PuO2_C6H5_SO2_OH-m1-quartet.casscf.MB.RasOrb.17 PuO2_C6H5_SO2_OH-m1-quartet.casscf.MB.RasOrb.1
           PuO2_C6H5_SO2_OH-m1-quartet.casscf.MB.RasOrb.15 PuO2_C6H5_SO2_OH-m1-quartet.casscf.MB.RasOrb.2 PuO2_C6H5_SO2_OH-m1-quartet.casscf.MB.RasOrb.8
           PuO2_C6H5_SO2_OH-m1-quartet.casscf.MB.RasOrb.18 PuO2_C6H5_SO2_OH-m1-quartet.casscf.MB.RasOrb.16 PuO2_C6H5_SO2_OH-m1-quartet.casscf.MB.RasOrb.13
           PuO2_C6H5_SO2_OH-m1-quartet.casscf.MB.RasOrb.20 PuO2_C6H5_SO2_OH-m1-quartet.casscf.MB.RasOrb.3 PuO2_C6H5_SO2_OH-m1-quartet.casscf.MB.rasscf.h5
           PuO2_C6H5_SO2_OH-m1-quartet.casscf.MB.SpdOrb.15 PuO2_C6H5_SO2_OH-m1-quartet.casscf.MB.SpdOrb.9 PuO2_C6H5_SO2_OH-m1-quartet.casscf.MB.SpdOrb.8
           PuO2_C6H5_SO2_OH-m1-quartet.casscf.MB.SpdOrb.18 PuO2_C6H5_SO2_OH-m1-quartet.casscf.MB.SpdOrb.2 PuO2_C6H5_SO2_OH-m1-quartet.casscf.MB.SpdOrb.11
           PuO2_C6H5_SO2_OH-m1-quartet.casscf.MB.SpdOrb.6 PuO2_C6H5_SO2_OH-m1-quartet.casscf.MB.SpdOrb.14 PuO2_C6H5_SO2_OH-m1-quartet.casscf.MB.SpdOrb.1
           PuO2_C6H5_SO2_OH-m1-quartet.casscf.MB.SpdOrb.10 PuO2_C6H5_SO2_OH-m1-quartet.casscf.MB.SpdOrb.17 PuO2_C6H5_SO2_OH-m1-quartet.casscf.MB.SpdOrb.13
           PuO2_C6H5_SO2_OH-m1-quartet.casscf.MB.SpdOrb.20 PuO2_C6H5_SO2_OH-m1-quartet.casscf.MB.SpdOrb.16 PuO2_C6H5_SO2_OH-m1-quartet.casscf.MB.SpdOrb.7
           PuO2_C6H5_SO2_OH-m1-quartet.casscf.MB.SpdOrb.19 PuO2_C6H5_SO2_OH-m1-quartet.casscf.MB.SpdOrb.5 PuO2_C6H5_SO2_OH-m1-quartet.casscf.MB.SpdOrb.3
           PuO2_C6H5_SO2_OH-m1-quartet.casscf.MB.SpdOrb.12 PuO2_C6H5_SO2_OH-m1-quartet.casscf.MB.SpdOrb.4 xmldump
    saved to directory /home/vallet/John-methylsulfonyl/PuO2_C6H5SO2_OH-m1/optg-freq-pbe0/SO-XMS
--- Module rasscf spent 1 minute 2 seconds ---

>>> COPY PuO2_C6H5_SO2_OH-m1-quartet.casscf.MB.RasOrb /home/vallet/John-methylsulfonyl/PuO2_C6H5SO2_OH-m1/optg-freq-pbe0/SO-XMS/PuO2_C6H5_SO2_OH-m1-quartet.casscf.MB.RasOrb_doublets

>>> COPY PuO2_C6H5_SO2_OH-m1-quartet.casscf.MB.rasscf.molden /home/vallet/John-methylsulfonyl/PuO2_C6H5SO2_OH-m1/optg-freq-pbe0/SO-XMS/PuO2_C6H5_SO2_OH-m1-quartet.casscf.MB.rasscf_doublets.molden

    Timing: Wall=247.23 User=1659.84 System=48.16
