15
Energy = -780.4409917580
C     0.5043392    0.1457633    2.1168203 
C     1.5240041    0.1737838    1.1768976 
C     1.2213340    0.2037289   -0.1771227 
C    -0.1061215    0.1918009   -0.5657406 
C    -1.1373716    0.1740704    0.3623114 
C    -0.8248303    0.1458955    1.7113244 
S    -0.4734904    0.3078668   -2.3181688 
O    -1.2528850   -1.1630684   -2.3464243 
H    -1.7764323   -1.1857873   -3.1559408 
O     0.8145332    0.1870550   -3.0199123 
H    -2.1702404    0.1683009    0.0351055 
H    -1.6178488    0.1228078    2.4485145 
H     0.7443535    0.1266164    3.1729034 
H     2.5585610    0.1741200    1.4972087 
H     1.9920953    0.2270462   -0.9377763 
