7
Energy = -588.2488117883
C     0.0550606    0.7832201    0.1319652 
H    -0.3496371    0.3987333    1.0676300 
H     1.1440043    0.8442734    0.1957889 
H    -0.3605053    1.7660003   -0.0780940 
O    -0.3328248   -0.0456631   -0.9665011 
S     0.0260022   -1.6340592   -0.8669394 
O    -0.1821000   -2.1125048    0.5161505 
