7
Energy = -588.2852748599
C     0.0534563    0.8045795    0.0999753 
H    -0.2332563    0.3971238    1.0777226 
H     1.1463118    0.9382777    0.0927615 
H    -0.4293182    1.7823213   -0.0289702 
O    -0.3671587   -0.0299919   -0.9425128 
S     0.2481104   -1.6463957   -0.7784432 
O    -0.4181454   -2.2459146    0.4794668 
