2
Energy = -150.2302259686
O     0.0000000    0.0000000   -0.5969312 
O     0.0000000    0.0000000    0.5969312 
