3
Energy = -548.3988351505
O    -1.2383410    0.0000000    0.2470016 
S     0.0000000    0.0000000   -0.4940032 
O     1.2383410    0.0000000    0.2470016 
