   This run of MOLCAS is using the pymolcas driver

                             OPE
                             OPE          NMOL  CASOP  ENMOLC A   SO
                 OPE        NMOLC        AS  OP EN  MO LC     AS  OP
                OPENM       OL CA        SO  PE NM  OL CA     SOP EN
                OP EN      MO   LC       AS  OP ENMOL  CASO   PENMOL
                OP  EN     MO   LC       AS  OP EN     MO     LC ASO
               OP   E  NMOL  C  AS       OP  EN MO     LC     AS  OP
               OP  E   NMO   LC AS        OPEN  MO     LCASOP EN   M
               O  PEN   MO  LCA  SO
            OPE   NMO   L   CAS    OP
        OPENMOL  CASOP     ENMOL   CASOPE
     OPENMOLCA   SOPENMOLCASOPEN   MOLCASOPE
    OPENMOLCAS   OP           EN   MOL    CAS
    OPENMOLCAS       OP  ENM        O     LCA
    OPENMOLCAS    OPEN  MOLCASO     P  E  NMO
    OPENMOLCAS     OP               E  N  MOL
    OPENMOLCA   SO           PENM   O  L  CAS    OPEN    MO    LCAS
    OPENMOLCA   SOP           ENM   O  L  CAS   OP  EN  MOLC  AS   O
    OPENMOLCA   SOPE           NM      O  LCA   S      OP  EN MO
    OPENMOLC                AS         O  PEN   M      OL  CA  SOPE
    OPENMO        LCASOPE  NMOL        C  ASO   P      ENMOLC     AS
    OPE     NMO      LCA  SO     P     E   NM   OL  CA SO  PE N   MO
          OPENMOLCA            SOPE   NMO        LCAS  O    P  ENMO
     OPENMOLCASOPENMOLCASOPENMOLCASOPENMOLCA
        OPENMOLCASOPENMOLCASOPENMOLCASOPE
            OPENMOLCASOPENMOLCASOPENM
               OPENMOLCASOPENMOLCA        version: 18.09
                   OPENMOLCASO
                       OPE                tag: 259-g52797e1-dirty

 OpenMolcas is free software; you can redistribute it and/or modify it
 under the terms of the GNU Lesser General Public License version 2.1.
 OpenMolcas is distributed in the hope that it will be useful, but it
 is provided "as is" and without any express or implied warranties.
 For more details see the full text of the license in the file
 LICENSE or in <http://www.gnu.org/licenses/>.

                 Copyright (C) The OpenMolcas Authors
           For the author list and the recommended citation,
                   consult the file CONTRIBUTORS.md

           *************************************************
           * pymolcas version py2.05                       *
           *   build e639e37c9a57315123c35f99e509df06      *
           *   (after the EMIL interpreter by V. Veryazov) *
           *************************************************

configuration info
------------------
C Compiler ID: Intel
C flags: -I/share/apps/fftw/3.3.8/include -std=gnu99 -mcmodel=large -qopenmp
Fortran Compiler ID: Intel
Fortran flags: -fpp -mcmodel=large -i8 -r8 -heap-arrays -qopenmp
Definitions: _MOLCAS_;_I8_;_LINUX_;_MKL_;_FDE_
Parallel: OFF (GA=OFF)


   ----------------------------------------------------------------------------------------------------------------
  |
  |           Project: UO2_CH3SO2_SO2-m1-triplet.casscf.MB
  |    Submitted from: /home/vallet/John-sulfinate/U-complexes/UO2_CH3SO2_SO2-m1/triplet-geom/optg-freq-pbe0/SO-XMS
  |      Scratch area: /state/partition2/vallet/655704.phlam-s-sakura/UO2_CH3SO2_SO2-m1-triplet.casscf.MB
  |   Save outputs to: /home/vallet/John-sulfinate/U-complexes/UO2_CH3SO2_SO2-m1/triplet-geom/optg-freq-pbe0/SO-XMS
  |            Molcas: /home/pcmt/OpenMolcas/OpenMolcas-20190114
  |
  | Scratch area is empty
  |
  |    MOLCAS_DRIVER = /home/pcmt/OpenMolcas/OpenMolcas-20190114/sbin/pymolcas
  |   MOLCAS_LICENSE = /home/pcmt/molcas/license
  |    MOLCAS_MOLDEN = ON
  |    MOLCAS_NPROCS = 1
  |    MOLCAS_SOURCE = /home/pcmt/OpenMolcas/OpenMolcas-20190114
  | MOLCAS_STRUCTURE = 0
  |
   ----------------------------------------------------------------------------------------------------------------

++ ---------   Input file   ---------

&GATEWAY
   COORD=$HomeDir/UO2_CH3SO2_SO2-m1.pbe0.optg-zaxis.xyz
   BASIS=ANO-RCC-MB
   Group=Nosym
   ANGM=0.0 0.0 0.0
   RICD

>>> COPY $Project.RunFile $HomeDir

&SEWARD

&RASSCF
   Spin=3
   Symmetry=1
   Nactel=2 0 0
   Inactive=90
   Ras2=5
   CIRoots=4 4 1
   Lumorb

>>> COPY $Project.RasOrb $HomeDir/$Project.RasOrb_triplets

>>> COPY $Project.rasscf.molden $HomeDir/$Project.rasscf_triplets.molden

>>> COPY $Project.RasOrb INPORB

&RASSCF
   Spin=1
   Symmetry=1
   Nactel=2 0 0
   Inactive=90
   Ras2=5
   CIRoots=4 4 1

>>> COPY $Project.RasOrb $HomeDir/$Project.RasOrb_singlets

>>> COPY $Project.rasscf.molden $HomeDir/$Project.rasscf_singlets.molden

-- ----------------------------------

--- Start Module: gateway at Fri Dec  6 15:02:54 2019 ---
 
()()()()()()()()()()()()()()()()()()()()()()()()()()()()()()()()()()()()()()()()()()()()()()()()()()

                                              &GATEWAY

                                   only a single process is used
                       available to each process: 4.1 GB of memory, 8 threads
()()()()()()()()()()()()()()()()()()()()()()()()()()()()()()()()()()()()()()()()()()()()()()()()()()
 
 
++    Symmetry information:
      ---------------------
 
                    Character Table for C1 
 
                             E  
                    a        1  x, y, xy, Rz, z, xz, Ry, yz, Rx, I
--
 
 
++    Basis set information:
      ----------------------
 
 
      Basis set label: C.ANO-RCC...2S1P.
 
      Electronic valence basis set:
      ------------------
      Associated Effective Charge   6.000000 au
      Associated Actual Charge      6.000000 au
      Nuclear Model: Point charge
 
      Shell  nPrim  nBasis  Cartesian Spherical Contaminant
         s      14       2        X                  
         p       9       1        X                  
 
 
      Basis set label: S.ANO-RCC...3S2P.
 
      Electronic valence basis set:
      ------------------
      Associated Effective Charge  16.000000 au
      Associated Actual Charge     16.000000 au
      Nuclear Model: Point charge
 
      Shell  nPrim  nBasis  Cartesian Spherical Contaminant
         s      17       3        X                  
         p      12       2        X                  
 
 
      Basis set label: O.ANO-RCC...2S1P.
 
      Electronic valence basis set:
      ------------------
      Associated Effective Charge   8.000000 au
      Associated Actual Charge      8.000000 au
      Nuclear Model: Point charge
 
      Shell  nPrim  nBasis  Cartesian Spherical Contaminant
         s      14       2        X                  
         p       9       1        X                  
 
 
      Basis set label: U.ANO-RCC...7S6P4D2F.
 
      Electronic valence basis set:
      ------------------
      Associated Effective Charge  92.000000 au
      Associated Actual Charge     92.000000 au
      Nuclear Model: Point charge
 
      Shell  nPrim  nBasis  Cartesian Spherical Contaminant
         s      26       7        X                  
         p      23       6        X                  
         d      17       4                 X         
         f      13       2                 X         
 
 
      Basis set label: O.ANO-RCC...2S1P.
 
      Electronic valence basis set:
      ------------------
      Associated Effective Charge   8.000000 au
      Associated Actual Charge      8.000000 au
      Nuclear Model: Point charge
 
      Shell  nPrim  nBasis  Cartesian Spherical Contaminant
         s      14       2        X                  
         p       9       1        X                  
 
 
      Basis set label: S.ANO-RCC...3S2P.
 
      Electronic valence basis set:
      ------------------
      Associated Effective Charge  16.000000 au
      Associated Actual Charge     16.000000 au
      Nuclear Model: Point charge
 
      Shell  nPrim  nBasis  Cartesian Spherical Contaminant
         s      17       3        X                  
         p      12       2        X                  
 
 
      Basis set label: O.ANO-RCC...2S1P.
 
      Electronic valence basis set:
      ------------------
      Associated Effective Charge   8.000000 au
      Associated Actual Charge      8.000000 au
      Nuclear Model: Point charge
 
      Shell  nPrim  nBasis  Cartesian Spherical Contaminant
         s      14       2        X                  
         p       9       1        X                  
 
 
      Basis set label: H.ANO-RCC...1S.
 
      Electronic valence basis set:
      ------------------
      Associated Effective Charge   1.000000 au
      Associated Actual Charge      1.000000 au
      Nuclear Model: Point charge
 
      Shell  nPrim  nBasis  Cartesian Spherical Contaminant
         s       8       1        X                  
--
 
 
++    Molecular structure info:
      -------------------------
 
                    ************************************************ 
                    **** Cartesian Coordinates / Bohr, Angstrom **** 
                    ************************************************ 
 
     Center  Label                x              y              z                     x              y              z
        1      C1               0.835259      -6.334986       3.824106              0.442000      -3.352330       2.023630
        2      S2               0.764980      -5.801951       0.439286              0.404810      -3.070260       0.232460
        3      O3              -1.763436      -4.414230       0.122246             -0.933170      -2.335910       0.064690
        4      U4               0.000000       0.000000       0.000000              0.000000       0.000000       0.000000
        5      O5               1.767839       4.484358       0.023716              0.935500       2.373020       0.012550
        6      S6              -0.773314       5.865143       0.044503             -0.409220       3.103700       0.023550
        7      O7              -2.869738       3.872899       0.023716             -1.518600       2.049450       0.012550
        8      O8               2.847307      -3.806305       0.122246              1.506730      -2.014210       0.064690
        9      O9              -0.001965       0.014910      -3.382761             -0.001040       0.007890      -1.790080
       10      O10              0.000000       0.000000       3.398276              0.000000       0.000000       1.798290
       11      H11              2.655708      -7.172210       4.305212              1.405340      -3.795370       2.278220
       12      H12              0.592127      -4.490934       4.713601              0.313340      -2.376500       2.494330
       13      H13             -0.705964      -7.615445       4.305212             -0.373580      -4.029920       2.278220
 
                    *************************************** 
                    *    InterNuclear Distances / Bohr    * 
                    *************************************** 
 
               1 C1            2 S2            3 O3            4 U4            5 O5            6 S6    
    1 C1       0.000000
    2 S2       3.427255        0.000000
    3 O3       4.913887        2.901580        0.000000
    4 U4       7.446710        5.868628        4.755006        0.000000
    5 O5      11.505254       10.343431        9.574157        4.820299        0.000000
    6 S6      12.873074       11.774688       10.327241        5.916071        2.892137        0.000000
    7 O7      11.505255       10.343432        8.361228        4.820302        4.677713        2.892138
    8 O8       4.913892        2.901586        4.650647        4.755004        8.361223       10.327238
    9 O9       9.641631        7.002293        5.916514        3.382794        5.891711        6.823954
   10 O10      6.403986        6.557701        5.772998        3.398276        5.884078        6.800420
   11 H11      2.060689        4.516398        6.680755        8.776573       12.449702       14.138048
   12 H12      2.061756        4.474194        5.160920        6.537364       10.194762       11.441732
   13 H13      2.060681        4.516395        5.372450        8.776573       13.071195       14.138049
 
               7 O7            8 O8            9 O9           10 O10          11 H11          12 H12   
    7 O7       0.000000
    8 O8       9.574158        0.000000
    9 O9       5.891713        5.916512        0.000000
   10 O10      5.884080        5.772996        6.781053        0.000000
   11 H11     13.071197        5.372450       10.854623        7.701682        0.000000
   12 H12     10.194765        5.160919        9.284753        4.716904        3.407989        0.000000
   13 H13     12.449706        6.680755       10.854624        7.701683        3.390766        3.407989
 
              13 H13   
   13 H13      0.000000
 
                    ******************************************* 
                    *    InterNuclear Distances / Angstrom    * 
                    ******************************************* 
 
               1 C1            2 S2            3 O3            4 U4            5 O5            6 S6    
    1 C1       0.000000
    2 S2       1.813625        0.000000
    3 O3       2.600317        1.535450        0.000000
    4 U4       3.940629        3.105544        2.516241        0.000000
    5 O5       6.088318        5.473508        5.066426        2.550792        0.000000
    6 S6       6.812138        6.230896        5.464940        3.130650        1.530453        0.000000
    7 O7       6.088319        5.473509        4.424571        2.550794        2.475339        1.530454
    8 O8       2.600319        1.535453        2.461017        2.516240        4.424569        5.464939
    9 O9       5.102132        3.705454        3.130884        1.790098        3.117759        3.611081
   10 O10      3.388843        3.470186        3.054939        1.798290        3.113720        3.598627
   11 H11      1.090470        2.389975        3.535303        4.644362        6.588099        7.481533
   12 H12      1.091034        2.367641        2.731041        3.459424        5.394836        6.054704
   13 H13      1.090466        2.389973        2.842978        4.644363        6.916979        7.481533
 
               7 O7            8 O8            9 O9           10 O10          11 H11          12 H12   
    7 O7       0.000000
    8 O8       5.066426        0.000000
    9 O9       3.117760        3.130883        0.000000
   10 O10      3.113721        3.054938        3.588379        0.000000
   11 H11      6.916980        2.842978        5.744019        4.075555        0.000000
   12 H12      5.394837        2.731041        4.913280        2.496078        1.803430        0.000000
   13 H13      6.588101        3.535303        5.744020        4.075555        1.794316        1.803430
 
              13 H13   
   13 H13      0.000000
 
                    ************************************** 
                    *    Valence Bond Angles / Degree    * 
                    ************************************** 
                          Atom centers                 Phi
                     11 H11      1 C1      12 H12      111.52
                     11 H11      1 C1      13 H13      110.72
                     12 H12      1 C1      13 H13      111.52
                      3 O3       2 S2       8 O8       106.53
                      5 O5       6 S6       7 O7       107.94
--
 
 
            Nuclear Potential Energy           2252.56891386 au
 
--- Stop Module: gateway at Fri Dec  6 15:05:25 2019 /rc=_RC_ALL_IS_WELL_ ---
*** files: UO2_CH3SO2_SO2-m1-triplet.casscf.MB.RICDLib xmldump
    saved to directory /home/vallet/John-sulfinate/U-complexes/UO2_CH3SO2_SO2-m1/triplet-geom/optg-freq-pbe0/SO-XMS
--- Module gateway spent 2 minutes 30 seconds ---

>>> COPY UO2_CH3SO2_SO2-m1-triplet.casscf.MB.RunFile /home/vallet/John-sulfinate/U-complexes/UO2_CH3SO2_SO2-m1/triplet-geom/optg-freq-pbe0/SO-XMS

--- Start Module: seward at Fri Dec  6 15:05:25 2019 ---
 
()()()()()()()()()()()()()()()()()()()()()()()()()()()()()()()()()()()()()()()()()()()()()()()()()()

                                              &SEWARD

                                   only a single process is used
                       available to each process: 4.1 GB of memory, 8 threads
()()()()()()()()()()()()()()()()()()()()()()()()()()()()()()()()()()()()()()()()()()()()()()()()()()
 
               SEWARD will generate:
                  Multipole Moment integrals up to order  2
                  Kinetic Energy integrals
                  Nuclear Attraction integrals (point charge)
                  One-Electron Hamiltonian integrals
                  Velocity integrals
                  Relativistic Douglas-Kroll-Hess integrals:
                    - Parametrization         : EXP
                    - DKH order of Hamiltonian: 2
                    - DKH order of Properties : 0
                         - multipole moment operators
                         - electric potential operators
                         - contact operators
                  Orbital angular momentum around ( 0.0000  0.0000  0.0000 )
                  Atomic mean-field integrals
                  RI decomposed two-electron repulsion integrals stored Cholesky style
                   - acCD auxiliary basis
                   - CD Threshold:   0.10E-03
 
                   Integrals are discarded if absolute value <: 0.10E-13
                   Integral cutoff threshold is set to       <: 0.10E-15
 
            Nuclear Potential Energy           2252.56891386 au
 
 
      Basis set specifications :
      Symmetry species         a  
      Basis functions          115
 
 
  Input file to MOLDEN was generated!
 
--- Stop Module: seward at Fri Dec  6 15:05:44 2019 /rc=_RC_ALL_IS_WELL_ ---
*** files: UO2_CH3SO2_SO2-m1-triplet.casscf.MB.GssOrb UO2_CH3SO2_SO2-m1-triplet.casscf.MB.guessorb.h5 UO2_CH3SO2_SO2-m1-triplet.casscf.MB.guessorb.molden xmldump
    saved to directory /home/vallet/John-sulfinate/U-complexes/UO2_CH3SO2_SO2-m1/triplet-geom/optg-freq-pbe0/SO-XMS
--- Module seward spent 18 seconds ---

*** symbolic link created: INPORB -> UO2_CH3SO2_SO2-m1-triplet.casscf.MB.GssOrb
--- Start Module: rasscf at Fri Dec  6 15:05:44 2019 ---
 
()()()()()()()()()()()()()()()()()()()()()()()()()()()()()()()()()()()()()()()()()()()()()()()()()()

                                              &RASSCF

                                   only a single process is used
                       available to each process: 4.1 GB of memory, 8 threads
()()()()()()()()()()()()()()()()()()()()()()()()()()()()()()()()()()()()()()()()()()()()()()()()()()
 
 
      Header of the ONEINT file:
      --------------------------
      
      Integrals generated by seward 4.2.0  , Fri Dec  6 15:05:25 2019
 
 
      OrdInt status: non-squared
 
 
      Cartesian coordinates in Angstrom:
      -----------------------------------------------------
      No.  Label        X            Y            Z        
      -----------------------------------------------------
       1   C1         0.44200000  -3.35233000   2.02363000
       2   S2         0.40481000  -3.07026000   0.23246000
       3   O3        -0.93317000  -2.33591000   0.06469000
       4   U4         0.00000000   0.00000000   0.00000000
       5   O5         0.93550000   2.37302000   0.01255000
       6   S6        -0.40922000   3.10370000   0.02355000
       7   O7        -1.51860000   2.04945000   0.01255000
       8   O8         1.50673000  -2.01421000   0.06469000
       9   O9        -0.00104000   0.00789000  -1.79008000
      10   O10        0.00000000   0.00000000   1.79829000
      11   H11        1.40534000  -3.79537000   2.27822000
      12   H12        0.31334000  -2.37650000   2.49433000
      13   H13       -0.37358000  -4.02992000   2.27822000
      -----------------------------------------------------
      Nuclear repulsion energy = 2252.56891386
 
++    Wave function specifications:
      -----------------------------
 
      Number of closed shell electrons         180
      Number of electrons in active shells       2
      Max number of holes in RAS1 space          0
      Max nr of electrons in RAS3 space          0
      Number of inactive orbitals               90
      Number of active orbitals                  5
      Number of secondary orbitals              20
      Spin quantum number                      1.0
      State symmetry                             1
--
 
++    Orbital specifications:
      -----------------------
 
      Symmetry species                           1
                                                 a
      Frozen orbitals                            0
      Inactive orbitals                         90
      Active orbitals                            5
      RAS1 orbitals                              0
      RAS2 orbitals                              5
      RAS3 orbitals                              0
      Secondary orbitals                        20
      Deleted orbitals                           0
      Number of basis functions                115
--
 
++    CI expansion specifications:
      ----------------------------
 
      Number of CSFs                            10
      Number of determinants                    10
      Number of root(s) required                 4
      Root chosen for geometry opt.              4
      CI roots used                              1     2     3     4
      weights                                0.250 0.250 0.250 0.250
      highest root included in the CI            4
      max. size of the explicit Hamiltonian     10
--
 
++    Optimization specifications:
      ----------------------------
 
      RASSCF algorithm: LK RI/DF
      Maximum number of macro iterations       200
      Maximum number of SX iterations          100
      Threshold for RASSCF energy            0.100E-07
      Threshold for max MO rotation          0.100E+00
      Threshold for max BLB element          0.100E-03
      Level shift parameter                  0.500E+00
      Make Quasi-Newton update
--
 
      The MO-coefficients are taken from the file:
      INPORB                                                                                                                          
      Title:Guess orbitals                                                                 
 
      Total molecular charge   -1.00
 
      ************************************************************************************************************************
      *                                                                                                                      *
      *                                            Wave function control section                                             *
      *                                                                                                                      *
      ************************************************************************************************************************
 
 
                                         RASSCF iterations: Energy and convergence statistics
                                         ----------------------------------------------------
 
      Iter CI   SX   CI       RASSCF       Energy    max ROT     max BLB   max BLB  Level Ln srch  Step   QN   Walltime
          iter iter root      energy       change     param      element    value   shift minimum  type update hh:mm:ss
 Nr of preliminary CI iterations:   1
      Total energies have been shifted. Add               -29000.00 au
        1   1   78    0  -234.07099087    0.00E+00  -0.80E-01   71  96 1 -0.33E+00*  1.15   0.00    SX    NO    0:00:03
        2   1  100    0  -234.83000829   -0.76E+00* -0.57E-01   71  96 1 -0.21E+00*  1.10   0.00    SX    NO    0:00:01
        3   1   14    0  -235.13704949   -0.31E+00* -0.33E-01   71  96 1 -0.12E+00*  1.04   0.00    SX    NO    0:00:01
        4   1    9    0  -235.25107121   -0.11E+00* -0.60E-01   68  99 1 -0.70E-01*  1.01   0.00    SX    NO    0:00:01
        5   1   11    0  -235.29574517   -0.45E-01* -0.67E-01   68  99 1 -0.44E-01*  0.99   2.50    LS   YES    0:00:01
        6   1   11    0  -235.32184614   -0.26E-01* -0.55E-01   89  96 1  0.28E-01*  0.96   1.49    QN   YES    0:00:01
        7   1    8    0  -235.33082647   -0.90E-02*  0.73E-01   89  96 1  0.28E-01*  0.93   1.87    QN   YES    0:00:01
        8   1    8    0  -235.33767837   -0.69E-02*  0.12E+00*  89  96 1  0.27E-01*  0.88   1.97    QN   YES    0:00:01
        9   1    8    0  -235.34456534   -0.69E-02*  0.21E+00*  89  96 1  0.23E-01*  0.82   2.29    QN   YES    0:00:01
       10   1   10    0  -235.35470346   -0.10E-01*  0.30E+00*  89 113 1 -0.31E-01*  0.70   1.97    QN   YES    0:00:01
       11   1   39    0  -235.36811634   -0.13E-01*  0.29E+00*  89 113 1 -0.53E-01*  0.56   1.36    QN   YES    0:00:01
       12   1   23    0  -235.38463306   -0.17E-01* -0.37E+00*  89  91 1  0.82E-01*  0.40   1.23    QN   YES    0:00:01
       13   1   86    0  -235.40421540   -0.20E-01* -0.12E+00*  89  91 1  0.90E-01*  0.47   0.86    QN   YES    0:00:01
       14   1   45    0  -235.42579532   -0.22E-01* -0.51E-01   89  91 1  0.93E-01*  0.47   2.50    QN   YES    0:00:01
       15   1   77    0  -235.46469677   -0.39E-01*  0.33E-01   89  91 1  0.85E-01*  0.48   1.28    QN   YES    0:00:01
       16   1   16    0  -235.48082168   -0.16E-01* -0.64E-01   89  91 1  0.82E-01*  0.49   2.08    QN   YES    0:00:01
       17   1   24    0  -235.49672861   -0.16E-01* -0.98E-01   89  91 1  0.79E-01*  0.49   2.02    QN   YES    0:00:01
       18   1   74    0  -235.51046991   -0.14E-01* -0.15E+00*  89  91 1  0.71E-01*  0.49   2.22    QN   YES    0:00:01
       19   1   16    0  -235.52368150   -0.13E-01* -0.20E+00*  89  91 1  0.58E-01*  0.50   2.32    QN   YES    0:00:01
       20   1   26    0  -235.53620348   -0.13E-01* -0.23E+00*  89  91 1  0.41E-01*  0.50   2.33    QN   YES    0:00:01
       21   1   31    0  -235.54713275   -0.11E-01*  0.23E+00*  89  91 1  0.24E-01*  0.50   2.16    QN   YES    0:00:01
       22   1   14    0  -235.55541276   -0.83E-02*  0.18E+00*  89  96 1  0.29E-01*  0.50   1.93    QN   YES    0:00:01
       23   1    8    0  -235.56086664   -0.55E-02* -0.11E+00*  89  96 1  0.28E-01*  0.50   1.81    QN   YES    0:00:01
       24   1    8    0  -235.56414780   -0.33E-02* -0.59E-01   89  96 1  0.21E-01*  0.50   1.70    QN   YES    0:00:01
       25   1    7    0  -235.56580017   -0.17E-02* -0.35E-01   89  96 1  0.11E-01*  0.50   1.62    QN   YES    0:00:01
       26   1    7    0  -235.56661169   -0.81E-03* -0.29E-01   80  95 1  0.63E-02*  0.50   1.70    QN   YES    0:00:01
       27   1    7    0  -235.56706022   -0.45E-03* -0.22E-01   89  91 1 -0.47E-02*  0.50   1.57    QN   YES    0:00:01
       28   1    7    0  -235.56726967   -0.21E-03* -0.17E-01   89  91 1 -0.38E-02*  0.50   1.47    QN   YES    0:00:01
       29   1    7    0  -235.56737980   -0.11E-03* -0.14E-01   89  96 1 -0.34E-02*  0.50   1.38    QN   YES    0:00:01
       30   1    7    0  -235.56745318   -0.73E-04* -0.12E-01   89  91 1 -0.25E-02*  0.50   1.59    QN   YES    0:00:01
       31   1    7    0  -235.56750523   -0.52E-04* -0.11E-01   89  91 1 -0.17E-02*  0.50   1.68    QN   YES    0:00:01
       32   1    6    0  -235.56753681   -0.32E-04* -0.78E-02   80  98 1 -0.11E-02*  0.50   1.65    QN   YES    0:00:01
       33   1    6    0  -235.56755387   -0.17E-04* -0.44E-02   80  98 1 -0.76E-03*  0.50   1.63    QN   YES    0:00:01
       34   1    6    0  -235.56756181   -0.79E-05*  0.23E-02   80  98 1 -0.39E-03*  0.50   1.48    QN   YES    0:00:01
       35   1    6    0  -235.56756451   -0.27E-05*  0.21E-02   80  95 1  0.16E-03*  0.50   1.48    QN   YES    0:00:01
       36   1    5    0  -235.56756553   -0.10E-05* -0.19E-02   93  97 1  0.10E-03*  0.50   1.50    QN   YES    0:00:01
       37   1    5    0  -235.56756599   -0.46E-06* -0.28E-02   71  96 1  0.78E-04   0.50   2.50    LS   YES    0:00:01
       38   1    6    0  -235.56756589    0.10E-06* -0.12E-02   80  98 1  0.16E-03*  0.50   0.40    LS   YES    0:00:01
       39   1    5    0  -235.56756610   -0.21E-06*  0.75E-04   80  98 1  0.12E-03*  0.50   1.16    QN   YES    0:00:01
       40   1    5    0  -235.56756626   -0.16E-06*  0.11E-03   80  98 1  0.82E-04   0.50   2.50    LS   YES    0:00:01
       41   1    5    0  -235.56756633   -0.65E-07* -0.94E-03   71  96 1 -0.41E-04   0.50   0.74    QN   YES    0:00:01
       42   1    5    0  -235.56756640   -0.73E-07* -0.14E-02   80  98 1  0.43E-04   0.50   2.50    LS   YES    0:00:01
       43   1    5    0  -235.56756641   -0.77E-08   0.42E-03   80  98 1  0.68E-04   0.50   0.57    QN   YES    0:00:01
      Convergence after 43 iterations
       44   1    5    0  -235.56756644   -0.35E-07*  0.42E-03   80  98 1  0.35E-04   0.50   0.57    QN   YES    0:00:01
 
      ************************************************************************************************************************
                                                      Wave function printout:
                       occupation of active orbitals, and spin coupling of open shells (u,d: Spin up or down)
      ************************************************************************************************************************
 
      Note: transformation to natural orbitals
      has been made, which may change the order of the CSFs.
 
      printout of CI-coefficients larger than  0.05 for root  1
      energy=  -29235.576234
      conf/sym  11111     Coeff  Weight
             2  u0u00  -0.06295 0.00396
             4  u000u   0.99802 0.99604
 
      printout of CI-coefficients larger than  0.05 for root  2
      energy=  -29235.571743
      conf/sym  11111     Coeff  Weight
             1  uu000   0.99914 0.99828
 
      printout of CI-coefficients larger than  0.05 for root  3
      energy=  -29235.566133
      conf/sym  11111     Coeff  Weight
             2  u0u00   0.99802 0.99604
             4  u000u   0.06295 0.00396
 
      printout of CI-coefficients larger than  0.05 for root  4
      energy=  -29235.556155
      conf/sym  11111     Coeff  Weight
             3  u00u0   0.99914 0.99828
 
      Natural orbitals and occupation numbers for root  1
      sym 1:   1.000000   0.000000   0.000000   0.000000   1.000000
 
      Natural orbitals and occupation numbers for root  2
      sym 1:   1.000000   1.000000   0.000000   0.000000   0.000000
 
      Natural orbitals and occupation numbers for root  3
      sym 1:   1.000000   0.000000   1.000000   0.000000   0.000000
 
      Natural orbitals and occupation numbers for root  4
      sym 1:   0.999999   0.000001   0.000001   0.999999  -0.000000
 
      ************************************************************************************************************************
      *                                                                                                                      *
      *                                                    Final results                                                     *
      *                                                                                                                      *
      ************************************************************************************************************************
 
 
++    Wave function specifications:
      -----------------------------
 
      Number of closed shell electrons         180
      Number of electrons in active shells       2
      Max number of holes in RAS1 space          0
      Max nr of electrons in RAS3 space          0
      Number of inactive orbitals               90
      Number of active orbitals                  5
      Number of secondary orbitals              20
      Spin quantum number                      1.0
      State symmetry                             1
--
 
++    Orbital specifications:
      -----------------------
 
      Symmetry species                           1
                                                 a
      Frozen orbitals                            0
      Inactive orbitals                         90
      Active orbitals                            5
      RAS1 orbitals                              0
      RAS2 orbitals                              5
      RAS3 orbitals                              0
      Secondary orbitals                        20
      Deleted orbitals                           0
      Number of basis functions                115
--
 
++    CI expansion specifications:
      ----------------------------
 
      Number of CSFs                            10
      Number of determinants                    10
      Number of root(s) required                 4
      CI roots used                              1     2     3     4
      weights                                0.250 0.250 0.250 0.250
      highest root included in the CI            4
      Root passed to geometry opt.               4
--
 
++    Final optimization conditions:
      ------------------------------
 
      Average CI energy                          -29235.56756644
      RASSCF energy for state  4                 -29235.55615545
      Super-CI energy                                -0.00000001
      RASSCF energy change                           -0.00000004
      Max change in MO coefficients              -0.417E-03
      Max non-diagonal density matrix element     0.420E-03
      Maximum BLB matrix element                  0.347E-04
      (orbital pair  80,  98 in symmetry   1)
      Norm of electronic gradient            0.456E-01
--
 
 
      Final state energy(ies):
      ------------------------
 
::    RASSCF root number  1 Total energy: -29235.57623420
::    RASSCF root number  2 Total energy: -29235.57174284
::    RASSCF root number  3 Total energy: -29235.56613328
::    RASSCF root number  4 Total energy: -29235.55615545
 
++    Molecular orbitals:
      -------------------
 
      Pseudonatural active orbitals and approximate occupation numbers
 
 
 
 
      Molecular orbitals for symmetry species 1: a  
 
 
      Orbital                1         2         3         4         5         6         7         8         9        10
      Energy        -4260.2812 -804.2394 -674.9112 -674.9111 -674.9105 -206.2775 -169.6780 -169.6779 -169.6690 -135.1031
      Occ. No.          2.0000    2.0000    2.0000    2.0000    2.0000    2.0000    2.0000    2.0000    2.0000    2.0000
 
    1 C1     1s        -0.0000   -0.0000    0.0000    0.0000   -0.0000   -0.0000   -0.0000    0.0000   -0.0000    0.0000
    2 C1     2s        -0.0000   -0.0000   -0.0000   -0.0000   -0.0000   -0.0000    0.0000   -0.0000    0.0000    0.0000
    3 C1     2px        0.0000    0.0000    0.0000    0.0000   -0.0000    0.0000    0.0000    0.0000   -0.0000    0.0000
    4 C1     2py       -0.0000   -0.0000   -0.0000    0.0000    0.0000   -0.0000    0.0000   -0.0000    0.0000   -0.0000
    5 C1     2pz        0.0000    0.0000    0.0000    0.0000   -0.0000    0.0000   -0.0000    0.0000   -0.0000    0.0000
    6 S2     1s        -0.0000   -0.0000   -0.0000   -0.0000    0.0000   -0.0000    0.0000   -0.0000    0.0000   -0.0000
    7 S2     2s        -0.0000   -0.0000   -0.0000   -0.0000    0.0000   -0.0000    0.0000   -0.0000    0.0000   -0.0000
    8 S2     3s        -0.0000   -0.0000   -0.0000   -0.0000   -0.0000   -0.0000    0.0000   -0.0000   -0.0000   -0.0000
    9 S2     2px       -0.0000   -0.0000    0.0000    0.0000   -0.0000   -0.0000    0.0000    0.0000   -0.0000    0.0000
   10 S2     3px       -0.0000   -0.0000    0.0000   -0.0000   -0.0000   -0.0000   -0.0000    0.0000   -0.0000    0.0000
   11 S2     2py        0.0000    0.0000   -0.0000    0.0000    0.0000    0.0000    0.0000   -0.0000    0.0000   -0.0000
   12 S2     3py        0.0000    0.0000   -0.0000   -0.0000    0.0000    0.0000   -0.0000   -0.0000    0.0000   -0.0000
   13 S2     2pz        0.0000    0.0000    0.0000    0.0000    0.0000    0.0000   -0.0000    0.0000    0.0000    0.0000
   14 S2     3pz        0.0000    0.0000    0.0000    0.0000    0.0000    0.0000   -0.0000    0.0000   -0.0000    0.0000
   15 O3     1s         0.0000    0.0000   -0.0000   -0.0000    0.0000    0.0000   -0.0000   -0.0000    0.0000   -0.0000
   16 O3     2s         0.0000    0.0000   -0.0000   -0.0000   -0.0000    0.0000   -0.0000   -0.0000   -0.0000   -0.0000
   17 O3     2px        0.0000    0.0000    0.0000    0.0000   -0.0000    0.0000    0.0000    0.0000   -0.0000    0.0000
   18 O3     2py        0.0000    0.0000    0.0000    0.0000   -0.0000    0.0000    0.0000    0.0000   -0.0000    0.0000
   19 O3     2pz       -0.0000   -0.0000    0.0000   -0.0000    0.0000   -0.0000   -0.0000    0.0000    0.0000    0.0000
   20 U4     1s         1.0000   -0.0000   -0.0000   -0.0000    0.0000    0.0000   -0.0000    0.0000   -0.0000    0.0000
   21 U4     2s         0.0000    1.0000    0.0000   -0.0000    0.0000   -0.0000   -0.0000    0.0000    0.0000   -0.0000
   22 U4     3s        -0.0000    0.0000   -0.0000    0.0000   -0.0000    1.0000   -0.0000    0.0000    0.0000   -0.0000
   23 U4     4s         0.0000   -0.0000   -0.0000   -0.0000    0.0000   -0.0000    0.0000   -0.0000   -0.0000   -0.0000
   24 U4     5s        -0.0000    0.0000    0.0000   -0.0000   -0.0000    0.0000    0.0000   -0.0000    0.0000    0.0000
   25 U4     6s         0.0000   -0.0000   -0.0000    0.0000    0.0000    0.0000   -0.0000    0.0000   -0.0000   -0.0000
   26 U4     7s        -0.0000   -0.0000   -0.0000   -0.0000   -0.0000   -0.0000    0.0000   -0.0000    0.0000    0.0000
   27 U4     2px       -0.0000    0.0000   -0.1311    0.9914    0.0014   -0.0000   -0.0000    0.0000    0.0000    0.0000
   28 U4     3px        0.0000    0.0000   -0.0000    0.0000    0.0000    0.0000    0.9926   -0.1216    0.0006    0.0000
   29 U4     4px       -0.0000   -0.0000    0.0000   -0.0000   -0.0000   -0.0000   -0.0000    0.0000   -0.0000   -0.0000
   30 U4     5px        0.0000   -0.0000   -0.0000    0.0000    0.0000    0.0000    0.0000   -0.0000    0.0000    0.0000
   31 U4     6px       -0.0000   -0.0000    0.0000   -0.0000    0.0000   -0.0000   -0.0000    0.0000    0.0000   -0.0000
   32 U4     7px        0.0000    0.0000    0.0000    0.0000    0.0000    0.0000    0.0000   -0.0000    0.0000    0.0000
   33 U4     2py        0.0000   -0.0000    0.9913    0.1311   -0.0097    0.0000   -0.0000   -0.0000   -0.0000   -0.0000
   34 U4     3py       -0.0000   -0.0000    0.0000    0.0000   -0.0000   -0.0000    0.1216    0.9926   -0.0043   -0.0000
   35 U4     4py        0.0000    0.0000   -0.0000   -0.0000    0.0000    0.0000   -0.0000   -0.0000    0.0000    0.0000
   36 U4     5py       -0.0000    0.0000    0.0000    0.0000   -0.0000   -0.0000    0.0000    0.0000   -0.0000   -0.0000
   37 U4     6py        0.0000    0.0000   -0.0000   -0.0000   -0.0000    0.0000   -0.0000   -0.0000   -0.0000    0.0000
   38 U4     7py       -0.0000   -0.0000   -0.0000    0.0000   -0.0000   -0.0000    0.0000    0.0000   -0.0000   -0.0000
   39 U4     2pz       -0.0000   -0.0000    0.0098   -0.0001    1.0000    0.0000    0.0000   -0.0000   -0.0000   -0.0000
   40 U4     3pz        0.0000   -0.0000    0.0000   -0.0000    0.0000   -0.0000   -0.0001    0.0044    1.0000   -0.0000
   41 U4     4pz       -0.0000    0.0000   -0.0000    0.0000   -0.0000   -0.0000    0.0000   -0.0000   -0.0000   -0.0000
   42 U4     5pz        0.0000   -0.0000    0.0000   -0.0000    0.0000    0.0000   -0.0000   -0.0000    0.0000   -0.0000
   43 U4     6pz       -0.0000    0.0000    0.0000   -0.0000    0.0000   -0.0000   -0.0000    0.0000    0.0000    0.0000
   44 U4     7pz        0.0000    0.0000    0.0000   -0.0000    0.0000    0.0000   -0.0000    0.0000    0.0000    0.0000
   45 U4     3d2-       0.0000    0.0000    0.0000   -0.0000   -0.0000    0.0000   -0.0000    0.0000   -0.0000    0.2596
   46 U4     4d2-      -0.0000    0.0000   -0.0000    0.0000   -0.0000    0.0000   -0.0000    0.0000   -0.0000   -0.0000
   47 U4     5d2-       0.0000   -0.0000    0.0000   -0.0000    0.0000    0.0000    0.0000   -0.0000   -0.0000    0.0000
   48 U4     6d2-       0.0000    0.0000    0.0000   -0.0000    0.0000    0.0000   -0.0000    0.0000   -0.0000   -0.0000
   49 U4     3d1-       0.0000    0.0000   -0.0000   -0.0000   -0.0000    0.0000   -0.0000   -0.0000   -0.0000   -0.0037
   50 U4     4d1-      -0.0000   -0.0000    0.0000    0.0000    0.0000    0.0000   -0.0000   -0.0000   -0.0000    0.0000
   51 U4     5d1-       0.0000    0.0000   -0.0000   -0.0000   -0.0000   -0.0000    0.0000    0.0000    0.0000   -0.0000
   52 U4     6d1-      -0.0000   -0.0000   -0.0000    0.0000    0.0000   -0.0000   -0.0000   -0.0000   -0.0000   -0.0000
   53 U4     3d0        0.0000   -0.0000    0.0000    0.0000   -0.0000   -0.0001   -0.0000    0.0000   -0.0000   -0.0239
   54 U4     4d0       -0.0000    0.0000   -0.0000   -0.0000    0.0000   -0.0000   -0.0000    0.0000   -0.0000   -0.0000
   55 U4     5d0       -0.0000    0.0000    0.0000    0.0000   -0.0000    0.0000    0.0000   -0.0000    0.0000    0.0000
   56 U4     6d0        0.0000    0.0000    0.0000    0.0000    0.0000    0.0000   -0.0000    0.0000   -0.0000   -0.0000
   57 U4     3d1+      -0.0000   -0.0000    0.0000   -0.0000    0.0000   -0.0000   -0.0000    0.0000    0.0000    0.0005
   58 U4     4d1+       0.0000    0.0000   -0.0000    0.0000   -0.0000   -0.0000   -0.0000    0.0000    0.0000   -0.0000
   59 U4     5d1+      -0.0000   -0.0000    0.0000   -0.0000    0.0000    0.0000    0.0000   -0.0000   -0.0000    0.0000
   60 U4     6d1+       0.0000    0.0000    0.0000    0.0000   -0.0000    0.0000   -0.0000    0.0000    0.0000    0.0000
   61 U4     3d2+       0.0000    0.0000    0.0000    0.0000   -0.0000    0.0000    0.0000    0.0000   -0.0000    0.9654
   62 U4     4d2+      -0.0000    0.0000   -0.0000   -0.0000   -0.0000    0.0000    0.0000    0.0000   -0.0000   -0.0000
   63 U4     5d2+       0.0000   -0.0000    0.0000    0.0000    0.0000    0.0000   -0.0000   -0.0000   -0.0000    0.0000
   64 U4     6d2+       0.0000    0.0000    0.0000    0.0000    0.0000    0.0000    0.0000    0.0000   -0.0000   -0.0000
   65 U4     4f3-       0.0000    0.0000    0.0000    0.0000   -0.0000    0.0000    0.0000    0.0000    0.0000   -0.0000
   66 U4     5f3-       0.0000    0.0000    0.0000   -0.0000   -0.0000   -0.0000   -0.0000    0.0000   -0.0000    0.0000
   67 U4     4f2-       0.0000   -0.0000   -0.0000    0.0000   -0.0000   -0.0000    0.0000   -0.0000    0.0000   -0.0000
   68 U4     5f2-       0.0000    0.0000   -0.0000   -0.0000    0.0000    0.0000   -0.0000    0.0000   -0.0000    0.0000
   69 U4     4f1-       0.0000    0.0000   -0.0000   -0.0000    0.0000   -0.0000   -0.0000   -0.0000    0.0000   -0.0000
   70 U4     5f1-      -0.0000   -0.0000    0.0000    0.0000   -0.0000   -0.0000    0.0000    0.0000   -0.0000    0.0000
   71 U4     4f0       -0.0000   -0.0000   -0.0000    0.0000   -0.0000   -0.0000    0.0000   -0.0000   -0.0000    0.0000
   72 U4     5f0        0.0000    0.0000    0.0000   -0.0000    0.0000    0.0000   -0.0000    0.0000    0.0000   -0.0000
   73 U4     4f1+      -0.0000   -0.0000    0.0000   -0.0000   -0.0000    0.0000   -0.0000    0.0000   -0.0000    0.0000
   74 U4     5f1+       0.0000    0.0000   -0.0000    0.0000    0.0000    0.0000    0.0000   -0.0000    0.0000   -0.0000
   75 U4     4f2+       0.0000   -0.0000   -0.0000   -0.0000   -0.0000   -0.0000   -0.0000   -0.0000    0.0000   -0.0000
   76 U4     5f2+       0.0000    0.0000   -0.0000    0.0000    0.0000    0.0000    0.0000    0.0000   -0.0000    0.0000
   77 U4     4f3+      -0.0000   -0.0000   -0.0000    0.0000    0.0000   -0.0000    0.0000   -0.0000   -0.0000    0.0000
   78 U4     5f3+      -0.0000   -0.0000   -0.0000   -0.0000    0.0000    0.0000   -0.0000   -0.0000    0.0000   -0.0000
   79 O5     1s         0.0000    0.0000    0.0000    0.0000   -0.0000    0.0000    0.0000    0.0000    0.0000   -0.0000
   80 O5     2s         0.0000    0.0000    0.0000    0.0000    0.0000    0.0000    0.0000    0.0000   -0.0000   -0.0000
   81 O5     2px       -0.0000   -0.0000    0.0000    0.0000   -0.0000   -0.0000    0.0000    0.0000    0.0000    0.0000
   82 O5     2py       -0.0000   -0.0000    0.0000    0.0000   -0.0000   -0.0000    0.0000    0.0000    0.0000   -0.0000
   83 O5     2pz       -0.0000   -0.0000   -0.0000    0.0000    0.0000   -0.0000    0.0000    0.0000    0.0000    0.0000
   84 S6     1s        -0.0000   -0.0000    0.0000    0.0000   -0.0000   -0.0000   -0.0000    0.0000    0.0000   -0.0000
   85 S6     2s        -0.0000   -0.0000    0.0000    0.0000   -0.0000   -0.0000   -0.0000    0.0000    0.0000   -0.0000
   86 S6     3s        -0.0000   -0.0000    0.0000    0.0000   -0.0000   -0.0000   -0.0000    0.0000    0.0000   -0.0000
   87 S6     2px        0.0000    0.0000    0.0000    0.0000   -0.0000    0.0000    0.0000    0.0000    0.0000   -0.0000
   88 S6     3px        0.0000    0.0000    0.0000   -0.0000   -0.0000    0.0000   -0.0000    0.0000    0.0000   -0.0000
   89 S6     2py       -0.0000   -0.0000   -0.0000    0.0000    0.0000   -0.0000    0.0000   -0.0000   -0.0000    0.0000
   90 S6     3py       -0.0000   -0.0000   -0.0000   -0.0000    0.0000   -0.0000   -0.0000   -0.0000   -0.0000    0.0000
   91 S6     2pz       -0.0000   -0.0000   -0.0000   -0.0000    0.0000   -0.0000    0.0000   -0.0000    0.0000    0.0000
   92 S6     3pz       -0.0000   -0.0000   -0.0000   -0.0000    0.0000   -0.0000    0.0000   -0.0000   -0.0000    0.0000
   93 O7     1s         0.0000    0.0000    0.0000   -0.0000   -0.0000    0.0000   -0.0000    0.0000    0.0000   -0.0000
   94 O7     2s         0.0000    0.0000    0.0000   -0.0000   -0.0000    0.0000   -0.0000    0.0000   -0.0000   -0.0000
   95 O7     2px        0.0000    0.0000   -0.0000    0.0000    0.0000    0.0000    0.0000   -0.0000   -0.0000    0.0000
   96 O7     2py       -0.0000   -0.0000    0.0000   -0.0000   -0.0000   -0.0000   -0.0000    0.0000    0.0000   -0.0000
   97 O7     2pz       -0.0000   -0.0000   -0.0000   -0.0000    0.0000   -0.0000   -0.0000    0.0000    0.0000    0.0000
   98 O8     1s         0.0000    0.0000   -0.0000    0.0000    0.0000    0.0000    0.0000   -0.0000    0.0000   -0.0000
   99 O8     2s         0.0000    0.0000   -0.0000    0.0000   -0.0000    0.0000    0.0000   -0.0000   -0.0000   -0.0000
  100 O8     2px       -0.0000   -0.0000   -0.0000    0.0000    0.0000   -0.0000    0.0000   -0.0000    0.0000   -0.0000
  101 O8     2py        0.0000    0.0000    0.0000   -0.0000   -0.0000    0.0000   -0.0000    0.0000   -0.0000    0.0000
  102 O8     2pz       -0.0000   -0.0000    0.0000    0.0000    0.0000   -0.0000    0.0000    0.0000    0.0000    0.0000
  103 O9     1s         0.0000    0.0000    0.0000   -0.0000    0.0000    0.0000   -0.0000   -0.0000    0.0000    0.0000
  104 O9     2s        -0.0000   -0.0000    0.0000   -0.0000    0.0000   -0.0000   -0.0000   -0.0000    0.0000    0.0000
  105 O9     2px       -0.0000   -0.0000    0.0000   -0.0000   -0.0000   -0.0000   -0.0000    0.0000    0.0000    0.0000
  106 O9     2py        0.0000    0.0000   -0.0000   -0.0000    0.0000    0.0000   -0.0000   -0.0000   -0.0000   -0.0000
  107 O9     2pz       -0.0000   -0.0000   -0.0000   -0.0000    0.0000   -0.0000    0.0000   -0.0000    0.0000    0.0000
  108 O10    1s         0.0000    0.0000   -0.0000    0.0000   -0.0000    0.0000    0.0000   -0.0000   -0.0000    0.0000
  109 O10    2s        -0.0000   -0.0000   -0.0000    0.0000   -0.0000   -0.0000    0.0000   -0.0000   -0.0000    0.0000
  110 O10    2px        0.0000    0.0000    0.0000   -0.0000   -0.0000    0.0000   -0.0000    0.0000   -0.0000   -0.0000
  111 O10    2py       -0.0000   -0.0000   -0.0000   -0.0000    0.0000   -0.0000   -0.0000   -0.0000    0.0000    0.0000
  112 O10    2pz        0.0000    0.0000    0.0000   -0.0000    0.0000    0.0000   -0.0000    0.0000    0.0000   -0.0000
  113 H11    1s         0.0000    0.0000    0.0000   -0.0000   -0.0000    0.0000   -0.0000    0.0000   -0.0000    0.0000
  114 H12    1s        -0.0000   -0.0000   -0.0000   -0.0000    0.0000   -0.0000    0.0000   -0.0000   -0.0000   -0.0000
  115 H13    1s         0.0000    0.0000    0.0000    0.0000   -0.0000    0.0000    0.0000    0.0000   -0.0000    0.0000
 
 
      Orbital               11        12        13        14        15        16        17        18        19        20
      Energy         -135.1029 -135.0994 -135.0993 -135.0981  -92.4061  -92.3420  -54.2616  -42.0448  -42.0445  -42.0289
      Occ. No.          2.0000    2.0000    2.0000    2.0000    2.0000    2.0000    2.0000    2.0000    2.0000    2.0000
 
    1 C1     1s        -0.0000   -0.0000    0.0000    0.0000   -0.0000   -0.0000   -0.0000   -0.0000    0.0000   -0.0000
    2 C1     2s        -0.0000   -0.0000    0.0000    0.0000    0.0000   -0.0000   -0.0000    0.0000   -0.0000   -0.0000
    3 C1     2px       -0.0000    0.0000    0.0000   -0.0000   -0.0000    0.0000    0.0000    0.0000    0.0000   -0.0000
    4 C1     2py        0.0000    0.0000   -0.0000    0.0000    0.0000   -0.0000   -0.0000    0.0000   -0.0000    0.0000
    5 C1     2pz       -0.0000   -0.0000    0.0000   -0.0000   -0.0000    0.0000    0.0000   -0.0000    0.0000   -0.0000
    6 S2     1s         0.0000    0.0000   -0.0000    0.0000    1.0000    0.0000   -0.0000    0.0000   -0.0000    0.0000
    7 S2     2s         0.0000    0.0000   -0.0000    0.0000   -0.0000   -0.0000   -0.0000    0.0000   -0.0000    0.0000
    8 S2     3s         0.0000    0.0000   -0.0000    0.0000   -0.0004   -0.0000    0.0000    0.0000   -0.0000    0.0000
    9 S2     2px       -0.0000   -0.0000    0.0000    0.0000   -0.0000    0.0000   -0.0000    0.0000    0.0000   -0.0000
   10 S2     3px        0.0000    0.0000    0.0000    0.0000    0.0000    0.0000   -0.0000    0.0000    0.0000   -0.0000
   11 S2     2py       -0.0000    0.0000   -0.0000   -0.0000    0.0001   -0.0000    0.0000    0.0000   -0.0000    0.0000
   12 S2     3py        0.0000    0.0000   -0.0000   -0.0000   -0.0000   -0.0000    0.0000    0.0000   -0.0000    0.0000
   13 S2     2pz       -0.0000    0.0000   -0.0000   -0.0000    0.0001    0.0000    0.0000   -0.0000    0.0000    0.0000
   14 S2     3pz       -0.0000    0.0000   -0.0000   -0.0000   -0.0000    0.0000    0.0000   -0.0000    0.0000    0.0000
   15 O3     1s         0.0000   -0.0000   -0.0000    0.0000    0.0000   -0.0000    0.0000   -0.0000   -0.0000    0.0000
   16 O3     2s         0.0000   -0.0000   -0.0000    0.0000    0.0000   -0.0000    0.0000   -0.0000   -0.0000    0.0000
   17 O3     2px       -0.0000    0.0000    0.0000    0.0000    0.0000    0.0000    0.0000    0.0000    0.0000   -0.0000
   18 O3     2py       -0.0000   -0.0000   -0.0000    0.0000    0.0000   -0.0000    0.0000    0.0000    0.0000   -0.0000
   19 O3     2pz       -0.0000   -0.0000   -0.0000   -0.0000    0.0000    0.0000   -0.0000   -0.0000    0.0000    0.0000
   20 U4     1s        -0.0000   -0.0000   -0.0000   -0.0000   -0.0000   -0.0000   -0.0000    0.0000   -0.0000    0.0000
   21 U4     2s         0.0000    0.0000   -0.0000    0.0000   -0.0000   -0.0000    0.0000    0.0000   -0.0000   -0.0000
   22 U4     3s         0.0000    0.0000   -0.0000    0.0001   -0.0000   -0.0000    0.0000    0.0000   -0.0000    0.0000
   23 U4     4s        -0.0000   -0.0000    0.0000    0.0000   -0.0000   -0.0000    1.0000   -0.0000    0.0000    0.0000
   24 U4     5s        -0.0000   -0.0000   -0.0000   -0.0000   -0.0000   -0.0000   -0.0001   -0.0000    0.0000   -0.0000
   25 U4     6s         0.0000    0.0000    0.0000    0.0000   -0.0000   -0.0000    0.0000    0.0000    0.0000    0.0000
   26 U4     7s        -0.0000   -0.0000    0.0000   -0.0000   -0.0000   -0.0000   -0.0000   -0.0000    0.0000   -0.0000
   27 U4     2px        0.0000    0.0000   -0.0000    0.0000   -0.0000    0.0000   -0.0000    0.0000   -0.0000   -0.0000
   28 U4     3px        0.0000    0.0000   -0.0000    0.0000   -0.0000    0.0000   -0.0000    0.0000   -0.0000    0.0000
   29 U4     4px       -0.0000   -0.0000    0.0000   -0.0000   -0.0000    0.0000    0.0000    0.9918   -0.1279    0.0006
   30 U4     5px        0.0000    0.0000   -0.0000    0.0000   -0.0000    0.0000   -0.0000   -0.0002    0.0000   -0.0000
   31 U4     6px       -0.0000    0.0000    0.0000   -0.0000   -0.0000    0.0000    0.0000    0.0000   -0.0000    0.0000
   32 U4     7px        0.0000   -0.0000    0.0000    0.0000   -0.0000    0.0000   -0.0000   -0.0000    0.0000   -0.0000
   33 U4     2py        0.0000    0.0000    0.0000   -0.0000    0.0000   -0.0000    0.0000    0.0000    0.0000    0.0000
   34 U4     3py        0.0000    0.0000    0.0000   -0.0000    0.0000   -0.0000    0.0000    0.0000    0.0000   -0.0000
   35 U4     4py       -0.0000   -0.0000   -0.0000    0.0000    0.0000   -0.0000   -0.0000    0.1279    0.9918   -0.0047
   36 U4     5py        0.0000    0.0000    0.0000   -0.0000    0.0000   -0.0000    0.0000   -0.0000   -0.0002    0.0000
   37 U4     6py       -0.0000    0.0000   -0.0000    0.0000    0.0000   -0.0000   -0.0000    0.0000    0.0000   -0.0000
   38 U4     7py        0.0000    0.0000   -0.0000   -0.0000    0.0000   -0.0000    0.0000   -0.0000   -0.0000    0.0000
   39 U4     2pz        0.0000   -0.0000    0.0000    0.0000   -0.0000   -0.0000   -0.0000   -0.0000    0.0000    0.0000
   40 U4     3pz       -0.0000   -0.0000    0.0000    0.0000   -0.0000   -0.0000    0.0000   -0.0000    0.0000    0.0000
   41 U4     4pz        0.0000    0.0000   -0.0000   -0.0000   -0.0000   -0.0000   -0.0000   -0.0000    0.0047    1.0000
   42 U4     5pz       -0.0000   -0.0000    0.0000   -0.0000   -0.0000   -0.0000    0.0000    0.0000    0.0000   -0.0001
   43 U4     6pz        0.0000   -0.0000    0.0000    0.0000   -0.0000   -0.0000   -0.0000   -0.0000    0.0000    0.0001
   44 U4     7pz        0.0000   -0.0000    0.0000    0.0000    0.0000    0.0000    0.0000   -0.0000    0.0000   -0.0000
   45 U4     3d2-       0.9657   -0.0075    0.0010    0.0062    0.0000    0.0000    0.0000    0.0000   -0.0000    0.0000
   46 U4     4d2-      -0.0000    0.0000   -0.0000   -0.0000    0.0000    0.0000    0.0000   -0.0000    0.0000   -0.0000
   47 U4     5d2-       0.0000   -0.0000    0.0000    0.0000    0.0000    0.0000   -0.0000   -0.0000    0.0000   -0.0000
   48 U4     6d2-      -0.0000    0.0000   -0.0000    0.0000    0.0000    0.0000    0.0000   -0.0000   -0.0000    0.0000
   49 U4     3d1-       0.0010    0.1278    0.9918   -0.0070    0.0000   -0.0000   -0.0000    0.0000    0.0000    0.0000
   50 U4     4d1-      -0.0000   -0.0000   -0.0000    0.0000    0.0000   -0.0000    0.0000   -0.0000   -0.0000   -0.0000
   51 U4     5d1-       0.0000    0.0000    0.0000   -0.0000    0.0000   -0.0000   -0.0000    0.0000    0.0000    0.0000
   52 U4     6d1-      -0.0000   -0.0000   -0.0000    0.0000   -0.0000   -0.0000    0.0000   -0.0000   -0.0000    0.0000
   53 U4     3d0        0.0000    0.0001    0.0069    0.9997    0.0000    0.0000   -0.0000    0.0000   -0.0000    0.0000
   54 U4     4d0       -0.0000   -0.0000   -0.0000   -0.0000    0.0000    0.0000   -0.0004   -0.0000    0.0000   -0.0000
   55 U4     5d0        0.0000   -0.0000    0.0000   -0.0000    0.0000    0.0000    0.0001   -0.0000    0.0000    0.0000
   56 U4     6d0        0.0000    0.0000    0.0000    0.0000    0.0000    0.0000    0.0000   -0.0000    0.0000   -0.0000
   57 U4     3d1+       0.0077    0.9918   -0.1278    0.0008   -0.0000    0.0000    0.0000    0.0000   -0.0000   -0.0000
   58 U4     4d1+      -0.0000   -0.0000    0.0000   -0.0000   -0.0000    0.0000   -0.0000   -0.0000    0.0000    0.0000
   59 U4     5d1+       0.0000    0.0000   -0.0000    0.0000   -0.0000    0.0000    0.0000    0.0000   -0.0000   -0.0000
   60 U4     6d1+      -0.0000   -0.0000    0.0000   -0.0000    0.0000    0.0000   -0.0000   -0.0000    0.0000   -0.0000
   61 U4     3d2+      -0.2596    0.0020    0.0037    0.0231    0.0000    0.0000    0.0000   -0.0000   -0.0000    0.0000
   62 U4     4d2+       0.0000   -0.0000   -0.0000   -0.0000    0.0000    0.0000    0.0000    0.0000    0.0000   -0.0000
   63 U4     5d2+      -0.0000    0.0000    0.0000    0.0000    0.0000    0.0000   -0.0000    0.0000    0.0000   -0.0000
   64 U4     6d2+       0.0000   -0.0000   -0.0000    0.0000    0.0000    0.0000    0.0000    0.0000   -0.0000    0.0000
   65 U4     4f3-       0.0000   -0.0000   -0.0000   -0.0000   -0.0000    0.0000    0.0000    0.0000    0.0000   -0.0000
   66 U4     5f3-      -0.0000    0.0000    0.0000    0.0000   -0.0000    0.0000    0.0000    0.0000   -0.0000    0.0000
   67 U4     4f2-      -0.0000   -0.0000    0.0000   -0.0000    0.0000    0.0000   -0.0000    0.0000   -0.0000    0.0000
   68 U4     5f2-       0.0000    0.0000   -0.0000    0.0000   -0.0000   -0.0000    0.0000    0.0000   -0.0000    0.0000
   69 U4     4f1-       0.0000   -0.0000   -0.0000   -0.0000   -0.0000    0.0000    0.0000   -0.0000   -0.0002    0.0000
   70 U4     5f1-      -0.0000    0.0000    0.0000    0.0000   -0.0000    0.0000   -0.0000    0.0000    0.0000   -0.0000
   71 U4     4f0       -0.0000   -0.0000    0.0000   -0.0000    0.0000    0.0000   -0.0000    0.0000   -0.0000   -0.0002
   72 U4     5f0        0.0000    0.0000   -0.0000    0.0000    0.0000    0.0000    0.0000   -0.0000    0.0000    0.0000
   73 U4     4f1+       0.0000   -0.0000    0.0000    0.0000    0.0000   -0.0000   -0.0000   -0.0002    0.0000   -0.0000
   74 U4     5f1+      -0.0000    0.0000   -0.0000   -0.0000    0.0000   -0.0000    0.0000    0.0000   -0.0000    0.0000
   75 U4     4f2+       0.0000    0.0000    0.0000   -0.0000    0.0000    0.0000   -0.0000   -0.0000   -0.0000    0.0000
   76 U4     5f2+      -0.0000   -0.0000   -0.0000    0.0000   -0.0000   -0.0000    0.0000   -0.0000   -0.0000    0.0000
   77 U4     4f3+       0.0000   -0.0000    0.0000    0.0000    0.0000   -0.0000   -0.0000    0.0000   -0.0000    0.0000
   78 U4     5f3+      -0.0000    0.0000   -0.0000   -0.0000    0.0000   -0.0000   -0.0000    0.0000    0.0000   -0.0000
   79 O5     1s         0.0000    0.0000    0.0000    0.0000   -0.0000    0.0000    0.0000    0.0000    0.0000   -0.0000
   80 O5     2s         0.0000    0.0000    0.0000    0.0000   -0.0000    0.0000    0.0000    0.0000    0.0000   -0.0000
   81 O5     2px        0.0000    0.0000    0.0000   -0.0000   -0.0000   -0.0000   -0.0000    0.0000    0.0000    0.0000
   82 O5     2py        0.0000   -0.0000   -0.0000   -0.0000    0.0000   -0.0000   -0.0000    0.0000    0.0000    0.0000
   83 O5     2pz       -0.0000    0.0000    0.0000   -0.0000   -0.0000   -0.0000   -0.0000    0.0000   -0.0000    0.0000
   84 S6     1s         0.0000   -0.0000    0.0000    0.0000   -0.0000    1.0000   -0.0000   -0.0000    0.0000   -0.0000
   85 S6     2s         0.0000   -0.0000    0.0000    0.0000   -0.0000   -0.0000   -0.0000   -0.0000    0.0000   -0.0000
   86 S6     3s         0.0000   -0.0000    0.0000    0.0000   -0.0000   -0.0004   -0.0000   -0.0000    0.0000   -0.0000
   87 S6     2px        0.0000    0.0000    0.0000   -0.0000   -0.0000    0.0000    0.0000    0.0000    0.0000    0.0000
   88 S6     3px       -0.0000    0.0000    0.0000   -0.0000   -0.0000   -0.0000    0.0000    0.0000    0.0000    0.0000
   89 S6     2py        0.0000    0.0000   -0.0000    0.0000    0.0000   -0.0001   -0.0000    0.0000   -0.0000   -0.0000
   90 S6     3py       -0.0000    0.0000   -0.0000    0.0000    0.0000    0.0000   -0.0000    0.0000   -0.0000   -0.0000
   91 S6     2pz       -0.0000   -0.0000    0.0000   -0.0000   -0.0000   -0.0000   -0.0000    0.0000   -0.0000    0.0000
   92 S6     3pz       -0.0000   -0.0000    0.0000   -0.0000   -0.0000    0.0000   -0.0000    0.0000   -0.0000    0.0000
   93 O7     1s        -0.0000   -0.0000    0.0000    0.0000   -0.0000    0.0000    0.0000   -0.0000    0.0000   -0.0000
   94 O7     2s        -0.0000   -0.0000    0.0000    0.0000   -0.0000    0.0000    0.0000   -0.0000    0.0000   -0.0000
   95 O7     2px        0.0000   -0.0000    0.0000    0.0000    0.0000    0.0000    0.0000    0.0000   -0.0000   -0.0000
   96 O7     2py       -0.0000    0.0000   -0.0000   -0.0000    0.0000   -0.0000   -0.0000   -0.0000    0.0000    0.0000
   97 O7     2pz        0.0000   -0.0000    0.0000   -0.0000   -0.0000   -0.0000   -0.0000   -0.0000   -0.0000    0.0000
   98 O8     1s        -0.0000    0.0000   -0.0000    0.0000    0.0000   -0.0000    0.0000    0.0000   -0.0000    0.0000
   99 O8     2s        -0.0000    0.0000   -0.0000    0.0000    0.0000   -0.0000    0.0000    0.0000   -0.0000    0.0000
  100 O8     2px       -0.0000    0.0000   -0.0000   -0.0000   -0.0000   -0.0000   -0.0000    0.0000   -0.0000    0.0000
  101 O8     2py        0.0000    0.0000   -0.0000    0.0000    0.0000   -0.0000    0.0000   -0.0000    0.0000   -0.0000
  102 O8     2pz        0.0000    0.0000   -0.0000   -0.0000    0.0000    0.0000   -0.0000    0.0000    0.0000    0.0000
  103 O9     1s        -0.0000   -0.0000   -0.0000   -0.0000    0.0000    0.0000    0.0000   -0.0000    0.0000    0.0000
  104 O9     2s        -0.0000   -0.0000   -0.0000   -0.0000    0.0000    0.0000    0.0000   -0.0000    0.0000    0.0000
  105 O9     2px       -0.0000    0.0000   -0.0000   -0.0000    0.0000   -0.0000   -0.0000   -0.0000    0.0000    0.0000
  106 O9     2py        0.0000    0.0000    0.0000    0.0000   -0.0000    0.0000    0.0000   -0.0000   -0.0000   -0.0000
  107 O9     2pz       -0.0000   -0.0000   -0.0000   -0.0000   -0.0000   -0.0000   -0.0000    0.0000   -0.0000    0.0000
  108 O10    1s        -0.0000   -0.0000   -0.0000   -0.0000    0.0000    0.0000    0.0000    0.0000   -0.0000   -0.0000
  109 O10    2s        -0.0000   -0.0000   -0.0000   -0.0000    0.0000    0.0000    0.0000    0.0000   -0.0000   -0.0000
  110 O10    2px        0.0000   -0.0000    0.0000    0.0000    0.0000   -0.0000    0.0000   -0.0000    0.0000   -0.0000
  111 O10    2py        0.0000   -0.0000   -0.0000   -0.0000   -0.0000    0.0000   -0.0000   -0.0000   -0.0000    0.0000
  112 O10    2pz        0.0000    0.0000    0.0000    0.0000    0.0000    0.0000    0.0000   -0.0000    0.0000    0.0000
  113 H11    1s         0.0000   -0.0000    0.0000    0.0000   -0.0000   -0.0000    0.0000   -0.0000    0.0000   -0.0000
  114 H12    1s         0.0000    0.0000   -0.0000   -0.0000   -0.0000   -0.0000   -0.0000    0.0000   -0.0000    0.0000
  115 H13    1s        -0.0000    0.0000    0.0000    0.0000   -0.0000   -0.0000    0.0000    0.0000    0.0000   -0.0000
 
 
      Orbital               21        22        23        24        25        26        27        28        29        30
      Energy          -28.8056  -28.8054  -28.7968  -28.7964  -28.7919  -20.3075  -20.3007  -20.3006  -20.2999  -20.2567
      Occ. No.          2.0000    2.0000    2.0000    2.0000    2.0000    2.0000    2.0000    2.0000    2.0000    2.0000
 
    1 C1     1s         0.0000   -0.0000    0.0000   -0.0000   -0.0000    0.0000    0.0000    0.0000   -0.0000    0.0000
    2 C1     2s         0.0000   -0.0000    0.0000   -0.0000    0.0000    0.0000   -0.0000   -0.0000   -0.0000   -0.0000
    3 C1     2px        0.0000   -0.0000    0.0000   -0.0000   -0.0000   -0.0000    0.0000    0.0000   -0.0000    0.0000
    4 C1     2py        0.0000    0.0000    0.0000    0.0000    0.0000    0.0000   -0.0000   -0.0000    0.0000    0.0000
    5 C1     2pz        0.0000   -0.0000    0.0000   -0.0000    0.0000   -0.0000    0.0000    0.0000   -0.0000    0.0000
    6 S2     1s        -0.0000    0.0000   -0.0000    0.0000    0.0000    0.0000   -0.0000   -0.0000    0.0000   -0.0000
    7 S2     2s        -0.0000    0.0000   -0.0000    0.0000    0.0000    0.0000   -0.0000   -0.0000    0.0000   -0.0000
    8 S2     3s        -0.0000    0.0000   -0.0000    0.0000    0.0000    0.0000   -0.0000   -0.0000    0.0000   -0.0000
    9 S2     2px        0.0000   -0.0000   -0.0000   -0.0000   -0.0000   -0.0000    0.0000   -0.0000   -0.0000   -0.0001
   10 S2     3px       -0.0000   -0.0000   -0.0000   -0.0000   -0.0000   -0.0000    0.0000   -0.0000   -0.0000   -0.0010
   11 S2     2py        0.0000    0.0000   -0.0000    0.0000    0.0000    0.0000   -0.0000   -0.0000    0.0000   -0.0000
   12 S2     3py       -0.0000    0.0000   -0.0000    0.0000    0.0000    0.0000   -0.0000   -0.0000    0.0000   -0.0002
   13 S2     2pz        0.0000   -0.0000   -0.0000    0.0000   -0.0000   -0.0000    0.0000    0.0000    0.0000    0.0000
   14 S2     3pz        0.0000   -0.0000   -0.0000    0.0000   -0.0000   -0.0000    0.0000    0.0000    0.0000    0.0000
   15 O3     1s        -0.0000    0.0000    0.0000    0.0000    0.0000   -0.0000   -0.0000   -0.0000   -0.0000   -0.6913
   16 O3     2s        -0.0000    0.0000    0.0000    0.0000    0.0000    0.0000   -0.0000   -0.0000    0.0000   -0.0012
   17 O3     2px        0.0000    0.0000   -0.0000   -0.0000   -0.0000   -0.0000    0.0000    0.0000   -0.0000   -0.0012
   18 O3     2py        0.0000   -0.0000    0.0000    0.0000    0.0000   -0.0000   -0.0000   -0.0000   -0.0000    0.0004
   19 O3     2pz        0.0000   -0.0000    0.0000    0.0000   -0.0000   -0.0000    0.0000    0.0000    0.0000   -0.0002
   20 U4     1s        -0.0000    0.0000    0.0000   -0.0000   -0.0000   -0.0000   -0.0000   -0.0000   -0.0000   -0.0000
   21 U4     2s        -0.0000   -0.0000   -0.0000    0.0000   -0.0000   -0.0000   -0.0000   -0.0000   -0.0000   -0.0000
   22 U4     3s         0.0000   -0.0000   -0.0000    0.0000    0.0000   -0.0000   -0.0000   -0.0000   -0.0000   -0.0000
   23 U4     4s         0.0000   -0.0000   -0.0000   -0.0000    0.0004   -0.0001   -0.0000   -0.0000   -0.0001   -0.0000
   24 U4     5s        -0.0000   -0.0000   -0.0000    0.0000   -0.0001   -0.0002   -0.0000   -0.0000   -0.0002   -0.0000
   25 U4     6s        -0.0000    0.0000    0.0000   -0.0000   -0.0000   -0.0006   -0.0001   -0.0001   -0.0006   -0.0000
   26 U4     7s         0.0000   -0.0000   -0.0000   -0.0000   -0.0000   -0.0006   -0.0001   -0.0002   -0.0007   -0.0000
   27 U4     2px       -0.0000   -0.0000   -0.0000    0.0000   -0.0000    0.0000    0.0000   -0.0000   -0.0000   -0.0000
   28 U4     3px        0.0000    0.0000    0.0000   -0.0000    0.0000    0.0000    0.0000   -0.0000   -0.0000   -0.0000
   29 U4     4px        0.0000    0.0000    0.0000   -0.0000    0.0000    0.0000    0.0000   -0.0000   -0.0000   -0.0000
   30 U4     5px       -0.0000   -0.0000   -0.0000    0.0000   -0.0000    0.0000    0.0000   -0.0000   -0.0000   -0.0000
   31 U4     6px        0.0000    0.0000    0.0000   -0.0000    0.0000    0.0000    0.0000    0.0000   -0.0000   -0.0000
   32 U4     7px       -0.0000   -0.0000    0.0000   -0.0000   -0.0000    0.0000    0.0000    0.0000   -0.0000   -0.0000
   33 U4     2py       -0.0000    0.0000   -0.0000   -0.0000    0.0000   -0.0000   -0.0000   -0.0000    0.0000   -0.0000
   34 U4     3py        0.0000   -0.0000    0.0000    0.0000   -0.0000   -0.0000   -0.0000   -0.0000    0.0000   -0.0000
   35 U4     4py        0.0000   -0.0000    0.0000    0.0000   -0.0000   -0.0000   -0.0000   -0.0000    0.0000   -0.0000
   36 U4     5py       -0.0000    0.0000   -0.0000   -0.0000    0.0000   -0.0000   -0.0000   -0.0000    0.0000   -0.0000
   37 U4     6py        0.0000   -0.0000    0.0000    0.0000   -0.0000   -0.0000   -0.0001   -0.0002    0.0000   -0.0000
   38 U4     7py       -0.0000    0.0000    0.0000    0.0000    0.0000   -0.0000   -0.0002   -0.0003    0.0000    0.0000
   39 U4     2pz       -0.0000    0.0000    0.0000   -0.0000   -0.0000    0.0000    0.0000    0.0000   -0.0000   -0.0000
   40 U4     3pz       -0.0000    0.0000   -0.0000    0.0000    0.0000    0.0000    0.0000    0.0000   -0.0000   -0.0000
   41 U4     4pz       -0.0000    0.0000   -0.0000    0.0000    0.0000    0.0000    0.0000    0.0000   -0.0000   -0.0000
   42 U4     5pz       -0.0000   -0.0000   -0.0000    0.0000   -0.0000    0.0001    0.0000    0.0000   -0.0001   -0.0000
   43 U4     6pz       -0.0000   -0.0000   -0.0000   -0.0000   -0.0000    0.0006    0.0000    0.0000   -0.0007   -0.0000
   44 U4     7pz        0.0000   -0.0000    0.0000   -0.0000   -0.0000    0.0005    0.0000    0.0000   -0.0005   -0.0000
   45 U4     3d2-       0.0000    0.0000   -0.0000    0.0000    0.0000   -0.0000    0.0000   -0.0000   -0.0000    0.0000
   46 U4     4d2-       0.9656    0.2598   -0.0053    0.0015    0.0022   -0.0000    0.0000   -0.0000    0.0000    0.0000
   47 U4     5d2-      -0.0003   -0.0001    0.0000   -0.0000   -0.0000   -0.0000    0.0000   -0.0000    0.0000    0.0000
   48 U4     6d2-       0.0000    0.0000   -0.0000    0.0000    0.0000    0.0000    0.0001   -0.0000    0.0000    0.0001
   49 U4     3d1-       0.0000   -0.0000    0.0000    0.0000   -0.0000    0.0000   -0.0000   -0.0000    0.0000   -0.0000
   50 U4     4d1-       0.0007   -0.0056    0.1299    0.9915   -0.0085    0.0000   -0.0000   -0.0000    0.0000   -0.0000
   51 U4     5d1-      -0.0000    0.0000   -0.0000   -0.0002    0.0000    0.0000   -0.0000   -0.0000    0.0000   -0.0000
   52 U4     6d1-       0.0000    0.0000    0.0000    0.0001    0.0000    0.0000   -0.0000   -0.0000    0.0000   -0.0000
   53 U4     3d0        0.0000    0.0000   -0.0000    0.0000    0.0000   -0.0000    0.0000    0.0000   -0.0000    0.0000
   54 U4     4d0        0.0001   -0.0086   -0.0001    0.0085    0.9999   -0.0000    0.0000    0.0000   -0.0000    0.0000
   55 U4     5d0       -0.0000    0.0000    0.0000   -0.0000   -0.0002   -0.0001    0.0000    0.0000   -0.0001    0.0000
   56 U4     6d0       -0.0000    0.0000    0.0000    0.0000    0.0001   -0.0006    0.0001    0.0001   -0.0006    0.0000
   57 U4     3d1+       0.0000    0.0000    0.0000   -0.0000    0.0000   -0.0000    0.0000   -0.0000   -0.0000   -0.0000
   58 U4     4d1+       0.0054    0.0007    0.9915   -0.1299    0.0012   -0.0000    0.0000   -0.0000   -0.0000   -0.0000
   59 U4     5d1+      -0.0000   -0.0000   -0.0002    0.0000   -0.0000   -0.0000    0.0000   -0.0000   -0.0000   -0.0000
   60 U4     6d1+       0.0000   -0.0000    0.0001   -0.0000   -0.0000   -0.0000    0.0000    0.0000   -0.0000   -0.0000
   61 U4     3d2+      -0.0000    0.0000    0.0000    0.0000    0.0000   -0.0000    0.0000    0.0000   -0.0000   -0.0000
   62 U4     4d2+      -0.2598    0.9656    0.0014    0.0055    0.0083   -0.0000    0.0000    0.0000    0.0000   -0.0000
   63 U4     5d2+       0.0001   -0.0003   -0.0000   -0.0000   -0.0000   -0.0000    0.0000    0.0000    0.0000   -0.0000
   64 U4     6d2+      -0.0000    0.0001    0.0000    0.0000    0.0000    0.0000    0.0001    0.0002    0.0000   -0.0000
   65 U4     4f3-       0.0000   -0.0000   -0.0000   -0.0000   -0.0000    0.0000   -0.0000    0.0000   -0.0000    0.0000
   66 U4     5f3-       0.0000   -0.0000   -0.0000   -0.0000    0.0000    0.0000    0.0000    0.0000   -0.0000    0.0000
   67 U4     4f2-      -0.0000   -0.0000   -0.0000    0.0000   -0.0000   -0.0000    0.0000   -0.0000    0.0000    0.0000
   68 U4     5f2-       0.0000    0.0000    0.0000   -0.0000    0.0000   -0.0000    0.0000   -0.0000    0.0000    0.0000
   69 U4     4f1-       0.0000   -0.0000   -0.0000   -0.0000   -0.0000   -0.0000    0.0000    0.0000    0.0000    0.0000
   70 U4     5f1-       0.0000   -0.0000   -0.0000   -0.0000    0.0000   -0.0000    0.0000    0.0000    0.0000   -0.0000
   71 U4     4f0       -0.0000    0.0000   -0.0000    0.0000   -0.0000    0.0000    0.0000    0.0000   -0.0000    0.0000
   72 U4     5f0       -0.0000    0.0000    0.0000   -0.0000   -0.0000    0.0001    0.0000    0.0000   -0.0001    0.0000
   73 U4     4f1+       0.0000    0.0000   -0.0000    0.0000    0.0000    0.0000   -0.0000    0.0000   -0.0000    0.0000
   74 U4     5f1+       0.0000    0.0000   -0.0000    0.0000   -0.0000    0.0000   -0.0000   -0.0000   -0.0000    0.0000
   75 U4     4f2+       0.0000   -0.0000    0.0000    0.0000   -0.0000   -0.0000   -0.0000   -0.0000    0.0000   -0.0000
   76 U4     5f2+      -0.0000    0.0000   -0.0000   -0.0000    0.0000   -0.0000   -0.0000    0.0000    0.0000   -0.0000
   77 U4     4f3+       0.0000    0.0000   -0.0000    0.0000    0.0000   -0.0000   -0.0000    0.0000    0.0000    0.0000
   78 U4     5f3+       0.0000    0.0000   -0.0000    0.0000   -0.0000   -0.0000   -0.0000    0.0000    0.0000    0.0000
   79 O5     1s        -0.0000    0.0000    0.0000   -0.0000    0.0000   -0.0001   -0.1762    0.9844    0.0008   -0.0000
   80 O5     2s        -0.0000    0.0000    0.0000   -0.0000    0.0000    0.0000   -0.0002    0.0016    0.0000   -0.0000
   81 O5     2px       -0.0000   -0.0000   -0.0000   -0.0000    0.0000    0.0000    0.0003   -0.0017    0.0000   -0.0000
   82 O5     2py       -0.0000    0.0000    0.0000    0.0000   -0.0000    0.0000   -0.0002    0.0005    0.0000    0.0000
   83 O5     2pz       -0.0000    0.0000   -0.0000   -0.0000    0.0000   -0.0000   -0.0000    0.0000    0.0000    0.0000
   84 S6     1s        -0.0000    0.0000    0.0000   -0.0000    0.0000    0.0000   -0.0000   -0.0000    0.0000   -0.0000
   85 S6     2s        -0.0000    0.0000    0.0000   -0.0000    0.0000    0.0000   -0.0002   -0.0003    0.0000   -0.0000
   86 S6     3s        -0.0000    0.0000    0.0000   -0.0000    0.0000    0.0000   -0.0007   -0.0010    0.0000   -0.0000
   87 S6     2px       -0.0000    0.0000    0.0000   -0.0000    0.0000    0.0000    0.0001   -0.0001    0.0000   -0.0000
   88 S6     3px        0.0000    0.0000    0.0000   -0.0000    0.0000    0.0000    0.0008   -0.0006    0.0000   -0.0000
   89 S6     2py       -0.0000   -0.0000    0.0000    0.0000   -0.0000   -0.0000    0.0001    0.0001   -0.0000   -0.0000
   90 S6     3py        0.0000   -0.0000   -0.0000    0.0000   -0.0000   -0.0000    0.0005    0.0005   -0.0000   -0.0000
   91 S6     2pz        0.0000   -0.0000    0.0000   -0.0000   -0.0000   -0.0000    0.0000    0.0000    0.0000    0.0000
   92 S6     3pz        0.0000   -0.0000    0.0000   -0.0000   -0.0000   -0.0000    0.0000    0.0000    0.0000    0.0000
   93 O7     1s         0.0000    0.0000   -0.0000   -0.0000    0.0000   -0.0001    0.9844    0.1762    0.0007    0.0000
   94 O7     2s         0.0000    0.0000    0.0000   -0.0000    0.0000    0.0000    0.0016    0.0003    0.0000    0.0000
   95 O7     2px       -0.0000    0.0000   -0.0000    0.0000   -0.0000   -0.0000    0.0015    0.0003   -0.0000    0.0000
   96 O7     2py       -0.0000    0.0000   -0.0000    0.0000   -0.0000    0.0000    0.0010    0.0001    0.0000   -0.0000
   97 O7     2pz        0.0000    0.0000    0.0000   -0.0000    0.0000   -0.0000    0.0000    0.0000    0.0000   -0.0000
   98 O8     1s         0.0000    0.0000   -0.0000    0.0000    0.0000   -0.0000   -0.0000   -0.0000   -0.0000    0.7227
   99 O8     2s         0.0000    0.0000   -0.0000    0.0000    0.0000    0.0000   -0.0000   -0.0000    0.0000    0.0013
  100 O8     2px        0.0000    0.0000   -0.0000    0.0000    0.0000    0.0000   -0.0000   -0.0000    0.0000   -0.0011
  101 O8     2py       -0.0000   -0.0000   -0.0000    0.0000    0.0000   -0.0000    0.0000   -0.0000   -0.0000   -0.0008
  102 O8     2pz       -0.0000   -0.0000   -0.0000    0.0000   -0.0000   -0.0000   -0.0000    0.0000    0.0000    0.0002
  103 O9     1s         0.0000   -0.0000   -0.0000    0.0000    0.0000    1.0001    0.0001    0.0001   -0.0007    0.0000
  104 O9     2s         0.0000   -0.0000   -0.0000    0.0000    0.0000    0.0015   -0.0000   -0.0000    0.0001   -0.0000
  105 O9     2px       -0.0000   -0.0000   -0.0000    0.0000    0.0000   -0.0000   -0.0000   -0.0000    0.0000   -0.0000
  106 O9     2py       -0.0000    0.0000   -0.0000   -0.0000   -0.0000    0.0000    0.0000    0.0000   -0.0000   -0.0000
  107 O9     2pz        0.0000   -0.0000   -0.0000    0.0000    0.0000    0.0013   -0.0000   -0.0000    0.0000   -0.0000
  108 O10    1s         0.0000   -0.0000   -0.0000    0.0000    0.0000    0.0007   -0.0006   -0.0009    1.0001    0.0000
  109 O10    2s         0.0000    0.0000   -0.0000    0.0000    0.0000    0.0001   -0.0000   -0.0000    0.0016    0.0000
  110 O10    2px        0.0000    0.0000    0.0000   -0.0000    0.0000    0.0000   -0.0000   -0.0000    0.0000    0.0000
  111 O10    2py        0.0000   -0.0000    0.0000    0.0000   -0.0000   -0.0000    0.0000    0.0000   -0.0000   -0.0000
  112 O10    2pz       -0.0000    0.0000    0.0000   -0.0000   -0.0000   -0.0000    0.0000    0.0000   -0.0013    0.0000
  113 H11    1s        -0.0000   -0.0000    0.0000   -0.0000    0.0000    0.0000   -0.0000   -0.0000    0.0000    0.0000
  114 H12    1s        -0.0000    0.0000   -0.0000    0.0000    0.0000    0.0000   -0.0000   -0.0000    0.0001    0.0000
  115 H13    1s         0.0000   -0.0000   -0.0000   -0.0000    0.0000    0.0000   -0.0000   -0.0000    0.0000   -0.0000
 
 
      Orbital               31        32        33        34        35        36        37        38        39        40
      Energy          -20.2567  -15.0176  -15.0173  -15.0120  -15.0113  -15.0111  -15.0033  -15.0030  -12.5724  -11.2176
      Occ. No.          2.0000    2.0000    2.0000    2.0000    2.0000    2.0000    2.0000    2.0000    2.0000    2.0000
 
    1 C1     1s         0.0000    0.0000   -0.0000   -0.0000    0.0000    0.0000    0.0000   -0.0000   -0.0000    1.0003
    2 C1     2s        -0.0000    0.0000   -0.0000   -0.0000    0.0000    0.0000    0.0000   -0.0000   -0.0000    0.0014
    3 C1     2px       -0.0000    0.0000    0.0000   -0.0000    0.0000   -0.0000   -0.0000    0.0000    0.0000    0.0000
    4 C1     2py        0.0000    0.0000   -0.0000    0.0000    0.0000    0.0000   -0.0000   -0.0000   -0.0000   -0.0002
    5 C1     2pz        0.0000   -0.0000    0.0000   -0.0000    0.0000   -0.0000   -0.0000    0.0000    0.0000   -0.0002
    6 S2     1s        -0.0000    0.0000   -0.0000    0.0000   -0.0000    0.0000    0.0000   -0.0000   -0.0000   -0.0000
    7 S2     2s        -0.0003    0.0000   -0.0000    0.0000   -0.0000    0.0000    0.0000   -0.0000   -0.0000   -0.0002
    8 S2     3s        -0.0013    0.0000   -0.0000    0.0000   -0.0000   -0.0000    0.0000   -0.0000   -0.0001   -0.0007
    9 S2     2px        0.0000    0.0000   -0.0000   -0.0000    0.0000    0.0000    0.0000   -0.0000   -0.0000   -0.0000
   10 S2     3px        0.0001    0.0000   -0.0000   -0.0000    0.0000    0.0000    0.0000   -0.0000   -0.0000   -0.0000
   11 S2     2py       -0.0001    0.0000    0.0000    0.0000    0.0000   -0.0000    0.0000    0.0000    0.0000    0.0000
   12 S2     3py       -0.0007    0.0000    0.0000    0.0000    0.0000   -0.0000    0.0000    0.0000    0.0000    0.0003
   13 S2     2pz        0.0000   -0.0000    0.0000    0.0000   -0.0000    0.0000   -0.0000    0.0000    0.0000   -0.0001
   14 S2     3pz        0.0001   -0.0000    0.0000    0.0000   -0.0000    0.0000   -0.0000    0.0000    0.0000   -0.0005
   15 O3     1s         0.7227    0.0000   -0.0000    0.0000    0.0000    0.0000    0.0000    0.0000    0.0000    0.0000
   16 O3     2s         0.0013    0.0000   -0.0000    0.0000    0.0000    0.0000    0.0000    0.0000    0.0000   -0.0000
   17 O3     2px        0.0013    0.0000    0.0000   -0.0000    0.0000    0.0000    0.0000    0.0000    0.0001   -0.0000
   18 O3     2py       -0.0003    0.0000   -0.0000   -0.0000    0.0000   -0.0000    0.0000    0.0000    0.0001    0.0001
   19 O3     2pz        0.0002   -0.0000    0.0000   -0.0000    0.0000   -0.0000   -0.0000   -0.0000   -0.0000   -0.0001
   20 U4     1s        -0.0000   -0.0000    0.0000   -0.0000    0.0000   -0.0000    0.0000   -0.0000   -0.0000   -0.0000
   21 U4     2s        -0.0000    0.0000    0.0000   -0.0000   -0.0000   -0.0000    0.0000   -0.0000   -0.0000   -0.0000
   22 U4     3s        -0.0000    0.0000   -0.0000    0.0000   -0.0000    0.0000    0.0000    0.0000   -0.0000   -0.0000
[...]
      6d1+     0.0000  0.0000  0.0000  0.4801  0.0000  0.0000  0.0000  0.0000  0.0000  0.0000  0.0000  0.0000
      6d0      0.0000  0.0000  0.0000  0.4459  0.0000  0.0000  0.0000  0.0000  0.0000  0.0000  0.0000  0.0000
      6d1-     0.0000  0.0000  0.0000  0.4797  0.0000  0.0000  0.0000  0.0000  0.0000  0.0000  0.0000  0.0000
      6d2-     0.0000  0.0000  0.0000  0.1810  0.0000  0.0000  0.0000  0.0000  0.0000  0.0000  0.0000  0.0000
      7px      0.0000  0.0000  0.0000  0.1069  0.0000  0.0000  0.0000  0.0000  0.0000  0.0000  0.0000  0.0000
      7pz      0.0000  0.0000  0.0000  0.0959  0.0000  0.0000  0.0000  0.0000  0.0000  0.0000  0.0000  0.0000
      7py      0.0000  0.0000  0.0000  0.1400  0.0000  0.0000  0.0000  0.0000  0.0000  0.0000  0.0000  0.0000
      Total    6.5976 15.1002  8.7364 90.4861  8.6927 15.3082  8.6926  8.7364  8.5820  8.5960  0.8369  0.7980
 
      N-E     -0.5976  0.8998 -0.7364  1.5139 -0.6927  0.6918 -0.6926 -0.7364 -0.5820 -0.5960  0.1631  0.2020
 
                H13   
      1s       0.8369
      2s       0.0000
      2px      0.0000
      2pz      0.0000
      2py      0.0000
      3s       0.0000
      3px      0.0000
      3pz      0.0000
      3py      0.0000
      4s       0.0000
      3d2+     0.0000
      3d1+     0.0000
      3d0      0.0000
      3d1-     0.0000
      3d2-     0.0000
      4px      0.0000
      4pz      0.0000
      4py      0.0000
      5s       0.0000
      4d2+     0.0000
      4d1+     0.0000
      4d0      0.0000
      4d1-     0.0000
      4d2-     0.0000
      5px      0.0000
      5pz      0.0000
      5py      0.0000
      6s       0.0000
      4f3+     0.0000
      4f2+     0.0000
      4f1+     0.0000
      4f0      0.0000
      4f1-     0.0000
      4f2-     0.0000
      4f3-     0.0000
      5d2+     0.0000
      5d1+     0.0000
      5d0      0.0000
      5d1-     0.0000
      5d2-     0.0000
      6px      0.0000
      6pz      0.0000
      6py      0.0000
      7s       0.0000
      5f3+     0.0000
      5f2+     0.0000
      5f1+     0.0000
      5f0      0.0000
      5f1-     0.0000
      5f2-     0.0000
      5f3-     0.0000
      6d2+     0.0000
      6d1+     0.0000
      6d0      0.0000
      6d1-     0.0000
      6d2-     0.0000
      7px      0.0000
      7pz      0.0000
      7py      0.0000
      Total    0.8369
 
      N-E      0.1631
 
      Total electronic charge=  182.000000
 
      Total            charge=   -1.000000
--
 
 

      Expectation values of various properties for root number:  3
      -----------------------------------------------------------
 
 
++    Molecular properties:
      ---------------------
 
      Charge (e):
                      =   -1.0000
      Dipole Moment (Debye):
      Origin of the operator (Ang)=    0.0000    0.0000    0.0000
                   X=  1.8025E-01               Y= -1.3708E+00               Z=  1.2755E+00           Total=  1.8811E+00
      Center of Charge (Ang)
                     X=   -0.03752789               Y=    0.28539639               Z=   -0.26555833
      Quadrupole Moment (Debye*Ang):
      Origin of the operator (Ang)=    0.0154   -0.1166    0.1021
                  XX= -1.2199E+02              XY=  3.8683E-01              XZ=  5.3825E-01              YY= -1.2488E+02
                  YZ= -4.0819E+00              ZZ= -1.2580E+02
      In traceless form (Debye*Ang)
                  XX=  3.3509E+00              XY=  5.8024E-01              XZ=  8.0738E-01              YY= -9.8575E-01
                  YZ= -6.1229E+00              ZZ= -2.3651E+00
--
 

      LoProp population analysis for root number:  3
      -----------------------------------------------
 
 
++    LoProp analysis:
      ----------------
 
 
 
  Input file to MOLDEN was generated!
 
 
++    Static properties:
      ------------------
 
 
      LoProp Charges per center
 

                   C1       S2       O3       U4       O5       S6       O7       O8       O9       O10   
      Nuclear      6.0000  16.0000   8.0000  92.0000   8.0000  16.0000   8.0000   8.0000   8.0000   8.0000
      Electronic  -6.4477 -15.0106  -8.8172 -89.5309  -8.7319 -15.2927  -8.7318  -8.8172  -8.9888  -8.9999
 
      Total       -0.4477   0.9894  -0.8172   2.4691  -0.7319   0.7073  -0.7318  -0.8172  -0.9888  -0.9999
 

                   H11      H12      H13   
      Nuclear      1.0000   1.0000   1.0000
      Electronic  -0.8892  -0.8530  -0.8892
 
      Total        0.1108   0.1470   0.1108
--
 
 
      Natural Bond Order analysis for root number:  3
 
++    Natural Bond Order analysis
      ---------------------------
      Based on LoProp computed density
      -------------------------------------------------------------------------------------
      Atom A       Atom B       Bond Order | Atom A       Atom B       Bond Order
        C1           S2             1.000  |   U4           O10            2.999
        C1           H11            0.999  |   O5           S6             1.994
        C1           H12            1.000  |   S6           O7             1.994
        C1           H13            0.999  |   S2           O3             0.981
        U4           O9             3.999  |   S2           O8             0.981
      -------------------------------------------------------------------------------------
      NBO located    117.999 core electrons.
      NBO located     28.892 lone pair electrons.
      NBO located     33.893 electrons involved in   10 bonds.
      The remaining    1.215 electrons are to be considered as diffuse
--
 
--
 
      Von Neumann Entropy (Root  4) =  1.00001
 

      Mulliken population analysis for root number:  4
      -----------------------------------------------
 
 
++    Molecular charges:
      ------------------
 
      Mulliken charges per centre and basis function type
      ---------------------------------------------------
 
                C1      S2      O3      U4      O5      S6      O7      O8      O9      O10     H11     H12   
      1s       2.0004  2.0000  2.0002  2.0000  2.0002  2.0000  2.0002  2.0002  2.0002  2.0002  0.8369  0.7980
      2s       1.2978  2.0003  1.9028  2.0000  1.9081  2.0003  1.9081  1.9028  1.8679  1.8652  0.0000  0.0000
      2px      1.1309  2.0002  1.3323  2.0000  1.3849  2.0003  1.5626  1.5339  1.6070  1.6100  0.0000  0.0000
      2pz      0.9975  2.0001  1.9040  2.0000  1.7440  2.0000  1.7438  1.9040  1.4990  1.5121  0.0000  0.0000
      2py      1.1709  2.0001  1.6005  2.0000  1.6584  2.0002  1.4809  1.3989  1.6086  1.6092  0.0000  0.0000
      3s       0.0000  1.6552  0.0000  2.0000  0.0000  1.7232  0.0000  0.0000  0.0000  0.0000  0.0000  0.0000
      3px      0.0000  0.8963  0.0000  2.0000  0.0000  0.7797  0.0000  0.0000  0.0000  0.0000  0.0000  0.0000
      3pz      0.0000  1.1561  0.0000  2.0000  0.0000  1.5016  0.0000  0.0000  0.0000  0.0000  0.0000  0.0000
      3py      0.0000  1.3911  0.0000  2.0000  0.0000  1.3024  0.0000  0.0000  0.0000  0.0000  0.0000  0.0000
      4s       0.0000  0.0000  0.0000  2.0000  0.0000  0.0000  0.0000  0.0000  0.0000  0.0000  0.0000  0.0000
      3d2+     0.0000  0.0000  0.0000  2.0000  0.0000  0.0000  0.0000  0.0000  0.0000  0.0000  0.0000  0.0000
      3d1+     0.0000  0.0000  0.0000  2.0000  0.0000  0.0000  0.0000  0.0000  0.0000  0.0000  0.0000  0.0000
      3d0      0.0000  0.0000  0.0000  2.0000  0.0000  0.0000  0.0000  0.0000  0.0000  0.0000  0.0000  0.0000
      3d1-     0.0000  0.0000  0.0000  2.0000  0.0000  0.0000  0.0000  0.0000  0.0000  0.0000  0.0000  0.0000
      3d2-     0.0000  0.0000  0.0000  2.0000  0.0000  0.0000  0.0000  0.0000  0.0000  0.0000  0.0000  0.0000
      4px      0.0000  0.0000  0.0000  2.0000  0.0000  0.0000  0.0000  0.0000  0.0000  0.0000  0.0000  0.0000
      4pz      0.0000  0.0000  0.0000  2.0000  0.0000  0.0000  0.0000  0.0000  0.0000  0.0000  0.0000  0.0000
      4py      0.0000  0.0000  0.0000  2.0000  0.0000  0.0000  0.0000  0.0000  0.0000  0.0000  0.0000  0.0000
      5s       0.0000  0.0000  0.0000  2.0000  0.0000  0.0000  0.0000  0.0000  0.0000  0.0000  0.0000  0.0000
      4d2+     0.0000  0.0000  0.0000  2.0000  0.0000  0.0000  0.0000  0.0000  0.0000  0.0000  0.0000  0.0000
      4d1+     0.0000  0.0000  0.0000  2.0000  0.0000  0.0000  0.0000  0.0000  0.0000  0.0000  0.0000  0.0000
      4d0      0.0000  0.0000  0.0000  2.0000  0.0000  0.0000  0.0000  0.0000  0.0000  0.0000  0.0000  0.0000
      4d1-     0.0000  0.0000  0.0000  2.0000  0.0000  0.0000  0.0000  0.0000  0.0000  0.0000  0.0000  0.0000
      4d2-     0.0000  0.0000  0.0000  2.0000  0.0000  0.0000  0.0000  0.0000  0.0000  0.0000  0.0000  0.0000
      5px      0.0000  0.0000  0.0000  2.0000  0.0000  0.0000  0.0000  0.0000  0.0000  0.0000  0.0000  0.0000
      5pz      0.0000  0.0000  0.0000  2.0001  0.0000  0.0000  0.0000  0.0000  0.0000  0.0000  0.0000  0.0000
      5py      0.0000  0.0000  0.0000  2.0000  0.0000  0.0000  0.0000  0.0000  0.0000  0.0000  0.0000  0.0000
      6s       0.0000  0.0000  0.0000  1.9858  0.0000  0.0000  0.0000  0.0000  0.0000  0.0000  0.0000  0.0000
      4f3+     0.0000  0.0000  0.0000  2.0000  0.0000  0.0000  0.0000  0.0000  0.0000  0.0000  0.0000  0.0000
      4f2+     0.0000  0.0000  0.0000  2.0000  0.0000  0.0000  0.0000  0.0000  0.0000  0.0000  0.0000  0.0000
      4f1+     0.0000  0.0000  0.0000  2.0000  0.0000  0.0000  0.0000  0.0000  0.0000  0.0000  0.0000  0.0000
      4f0      0.0000  0.0000  0.0000  2.0000  0.0000  0.0000  0.0000  0.0000  0.0000  0.0000  0.0000  0.0000
      4f1-     0.0000  0.0000  0.0000  2.0000  0.0000  0.0000  0.0000  0.0000  0.0000  0.0000  0.0000  0.0000
      4f2-     0.0000  0.0000  0.0000  2.0000  0.0000  0.0000  0.0000  0.0000  0.0000  0.0000  0.0000  0.0000
      4f3-     0.0000  0.0000  0.0000  2.0000  0.0000  0.0000  0.0000  0.0000  0.0000  0.0000  0.0000  0.0000
      5d2+     0.0000  0.0000  0.0000  1.9999  0.0000  0.0000  0.0000  0.0000  0.0000  0.0000  0.0000  0.0000
      5d1+     0.0000  0.0000  0.0000  1.9998  0.0000  0.0000  0.0000  0.0000  0.0000  0.0000  0.0000  0.0000
      5d0      0.0000  0.0000  0.0000  1.9987  0.0000  0.0000  0.0000  0.0000  0.0000  0.0000  0.0000  0.0000
      5d1-     0.0000  0.0000  0.0000  1.9998  0.0000  0.0000  0.0000  0.0000  0.0000  0.0000  0.0000  0.0000
      5d2-     0.0000  0.0000  0.0000  1.9999  0.0000  0.0000  0.0000  0.0000  0.0000  0.0000  0.0000  0.0000
      6px      0.0000  0.0000  0.0000  1.9826  0.0000  0.0000  0.0000  0.0000  0.0000  0.0000  0.0000  0.0000
      6pz      0.0000  0.0000  0.0000  1.7811  0.0000  0.0000  0.0000  0.0000  0.0000  0.0000  0.0000  0.0000
      6py      0.0000  0.0000  0.0000  1.9736  0.0000  0.0000  0.0000  0.0000  0.0000  0.0000  0.0000  0.0000
      7s       0.0000  0.0000  0.0000  0.1782  0.0000  0.0000  0.0000  0.0000  0.0000  0.0000  0.0000  0.0000
      5f3+     0.0000  0.0000  0.0000  0.8506  0.0000  0.0000  0.0000  0.0000  0.0000  0.0000  0.0000  0.0000
      5f2+     0.0000  0.0000  0.0000  0.0024  0.0000  0.0000  0.0000  0.0000  0.0000  0.0000  0.0000  0.0000
      5f1+     0.0000  0.0000  0.0000  0.3069  0.0000  0.0000  0.0000  0.0000  0.0000  0.0000  0.0000  0.0000
      5f0      0.0000  0.0000  0.0000  0.9752  0.0000  0.0000  0.0000  0.0000  0.0000  0.0000  0.0000  0.0000
      5f1-     0.0000  0.0000  0.0000  0.3015  0.0000  0.0000  0.0000  0.0000  0.0000  0.0000  0.0000  0.0000
      5f2-     0.0000  0.0000  0.0000  0.0068  0.0000  0.0000  0.0000  0.0000  0.0000  0.0000  0.0000  0.0000
      5f3-     0.0000  0.0000  0.0000  0.1505  0.0000  0.0000  0.0000  0.0000  0.0000  0.0000  0.0000  0.0000
      6d2+     0.0000  0.0000  0.0000  0.0428  0.0000  0.0000  0.0000  0.0000  0.0000  0.0000  0.0000  0.0000
      6d1+     0.0000  0.0000  0.0000  0.4801  0.0000  0.0000  0.0000  0.0000  0.0000  0.0000  0.0000  0.0000
      6d0      0.0000  0.0000  0.0000  0.4459  0.0000  0.0000  0.0000  0.0000  0.0000  0.0000  0.0000  0.0000
      6d1-     0.0000  0.0000  0.0000  0.4797  0.0000  0.0000  0.0000  0.0000  0.0000  0.0000  0.0000  0.0000
      6d2-     0.0000  0.0000  0.0000  0.1811  0.0000  0.0000  0.0000  0.0000  0.0000  0.0000  0.0000  0.0000
      7px      0.0000  0.0000  0.0000  0.1141  0.0000  0.0000  0.0000  0.0000  0.0000  0.0000  0.0000  0.0000
      7pz      0.0000  0.0000  0.0000  0.0959  0.0000  0.0000  0.0000  0.0000  0.0000  0.0000  0.0000  0.0000
      7py      0.0000  0.0000  0.0000  0.1399  0.0000  0.0000  0.0000  0.0000  0.0000  0.0000  0.0000  0.0000
      Total    6.5976 15.0995  8.7399 90.4730  8.6957 15.3077  8.6956  8.7399  8.5827  8.5968  0.8369  0.7980
 
      N-E     -0.5976  0.9005 -0.7399  1.5270 -0.6957  0.6923 -0.6956 -0.7399 -0.5827 -0.5968  0.1631  0.2020
 
                H13   
      1s       0.8369
      2s       0.0000
      2px      0.0000
      2pz      0.0000
      2py      0.0000
      3s       0.0000
      3px      0.0000
      3pz      0.0000
      3py      0.0000
      4s       0.0000
      3d2+     0.0000
      3d1+     0.0000
      3d0      0.0000
      3d1-     0.0000
      3d2-     0.0000
      4px      0.0000
      4pz      0.0000
      4py      0.0000
      5s       0.0000
      4d2+     0.0000
      4d1+     0.0000
      4d0      0.0000
      4d1-     0.0000
      4d2-     0.0000
      5px      0.0000
      5pz      0.0000
      5py      0.0000
      6s       0.0000
      4f3+     0.0000
      4f2+     0.0000
      4f1+     0.0000
      4f0      0.0000
      4f1-     0.0000
      4f2-     0.0000
      4f3-     0.0000
      5d2+     0.0000
      5d1+     0.0000
      5d0      0.0000
      5d1-     0.0000
      5d2-     0.0000
      6px      0.0000
      6pz      0.0000
      6py      0.0000
      7s       0.0000
      5f3+     0.0000
      5f2+     0.0000
      5f1+     0.0000
      5f0      0.0000
      5f1-     0.0000
      5f2-     0.0000
      5f3-     0.0000
      6d2+     0.0000
      6d1+     0.0000
      6d0      0.0000
      6d1-     0.0000
      6d2-     0.0000
      7px      0.0000
      7pz      0.0000
      7py      0.0000
      Total    0.8369
 
      N-E      0.1631
 
      Total electronic charge=  182.000000
 
      Total            charge=   -1.000000
--
 
 

      Expectation values of various properties for root number:  4
      -----------------------------------------------------------
 
 
++    Molecular properties:
      ---------------------
 
      Charge (e):
                      =   -1.0000
      Dipole Moment (Debye):
      Origin of the operator (Ang)=    0.0000    0.0000    0.0000
                   X=  1.8103E-01               Y= -1.3765E+00               Z=  1.2753E+00           Total=  1.8852E+00
      Center of Charge (Ang)
                     X=   -0.03768894               Y=    0.28658169               Z=   -0.26550872
      Quadrupole Moment (Debye*Ang):
      Origin of the operator (Ang)=    0.0154   -0.1166    0.1021
                  XX= -1.2232E+02              XY=  3.4079E-01              XZ=  5.3491E-01              YY= -1.2487E+02
                  YZ= -4.0565E+00              ZZ= -1.2586E+02
      In traceless form (Debye*Ang)
                  XX=  3.0435E+00              XY=  5.1118E-01              XZ=  8.0236E-01              YY= -7.7856E-01
                  YZ= -6.0848E+00              ZZ= -2.2649E+00
--
 

      LoProp population analysis for root number:  4
      -----------------------------------------------
 
 
++    LoProp analysis:
      ----------------
 
 
 
  Input file to MOLDEN was generated!
 
 
++    Static properties:
      ------------------
 
 
      LoProp Charges per center
 

                   C1       S2       O3       U4       O5       S6       O7       O8       O9       O10   
      Nuclear      6.0000  16.0000   8.0000  92.0000   8.0000  16.0000   8.0000   8.0000   8.0000   8.0000
      Electronic  -6.4477 -15.0095  -8.8216 -89.5147  -8.7355 -15.2919  -8.7354  -8.8216  -8.9899  -9.0009
 
      Total       -0.4477   0.9905  -0.8216   2.4853  -0.7355   0.7081  -0.7354  -0.8216  -0.9899  -1.0009
 

                   H11      H12      H13   
      Nuclear      1.0000   1.0000   1.0000
      Electronic  -0.8892  -0.8530  -0.8892
 
      Total        0.1108   0.1470   0.1108
--
 
 
      Natural Bond Order analysis for root number:  4
 
++    Natural Bond Order analysis
      ---------------------------
      Based on LoProp computed density
      -------------------------------------------------------------------------------------
      Atom A       Atom B       Bond Order | Atom A       Atom B       Bond Order
        C1           S2             1.000  |   U4           O10            2.000
        C1           H11            0.999  |   O5           S6             1.993
        C1           H12            1.000  |   S6           O7             1.993
        C1           H13            0.999  |   S2           O3             0.981
        U4           O9             3.000  |   S2           O8             0.981
      -------------------------------------------------------------------------------------
      Atom A       Atom B       Atom C       Bond Order
        S2           O5           O10            0.922
        S2           O7           O10            0.922
      -------------------------------------------------------------------------------------
      NBO located    117.999 core electrons.
      NBO located     28.905 lone pair electrons.
      NBO located     33.580 electrons involved in   12 bonds.
      The remaining    1.516 electrons are to be considered as diffuse
--
 
--
 
 
  Input file to MOLDEN was generated!
 
 
  Input file to MOLDEN was generated!
 
 
  Input file to MOLDEN was generated!
 
 
  Input file to MOLDEN was generated!
 
 
  Input file to MOLDEN was generated!
 
      Average orbitals are written to the RASORB file
      Natural orbitals for root   1 are written to the RASORB.1 file
      Natural orbitals for root   2 are written to the RASORB.2 file
      Natural orbitals for root   3 are written to the RASORB.3 file
      Natural orbitals for root   4 are written to the RASORB.4 file
      Spin density orbitals for root   1 are written to the SPDORB.1 file
      Spin density orbitals for root   2 are written to the SPDORB.2 file
      Spin density orbitals for root   3 are written to the SPDORB.3 file
      Spin density orbitals for root   4 are written to the SPDORB.4 file
 
--- Stop Module: rasscf at Fri Dec  6 15:07:20 2019 /rc=_RC_ALL_IS_WELL_ ---
*** files: UO2_CH3SO2_SO2-m1-triplet.casscf.MB.LprOrb UO2_CH3SO2_SO2-m1-triplet.casscf.MB.rasscf.molden.1 UO2_CH3SO2_SO2-m1-triplet.casscf.MB.rasscf.molden.2
           UO2_CH3SO2_SO2-m1-triplet.casscf.MB.rasscf.molden.4 UO2_CH3SO2_SO2-m1-triplet.casscf.MB.rasscf.molden UO2_CH3SO2_SO2-m1-triplet.casscf.MB.rasscf.molden.3
           UO2_CH3SO2_SO2-m1-triplet.casscf.MB.LoProp.molden UO2_CH3SO2_SO2-m1-triplet.casscf.MB.RasOrb UO2_CH3SO2_SO2-m1-triplet.casscf.MB.RasOrb.4
           UO2_CH3SO2_SO2-m1-triplet.casscf.MB.RasOrb.2 UO2_CH3SO2_SO2-m1-triplet.casscf.MB.RasOrb.1 UO2_CH3SO2_SO2-m1-triplet.casscf.MB.RasOrb.3
           UO2_CH3SO2_SO2-m1-triplet.casscf.MB.rasscf.h5 UO2_CH3SO2_SO2-m1-triplet.casscf.MB.SpdOrb.4 UO2_CH3SO2_SO2-m1-triplet.casscf.MB.SpdOrb.1
           UO2_CH3SO2_SO2-m1-triplet.casscf.MB.SpdOrb.2 UO2_CH3SO2_SO2-m1-triplet.casscf.MB.SpdOrb.3 xmldump
    saved to directory /home/vallet/John-sulfinate/U-complexes/UO2_CH3SO2_SO2-m1/triplet-geom/optg-freq-pbe0/SO-XMS
--- Module rasscf spent 28 seconds ---

>>> COPY UO2_CH3SO2_SO2-m1-triplet.casscf.MB.RasOrb /home/vallet/John-sulfinate/U-complexes/UO2_CH3SO2_SO2-m1/triplet-geom/optg-freq-pbe0/SO-XMS/UO2_CH3SO2_SO2-m1-triplet.casscf.MB.RasOrb_singlets

>>> COPY UO2_CH3SO2_SO2-m1-triplet.casscf.MB.rasscf.molden /home/vallet/John-sulfinate/U-complexes/UO2_CH3SO2_SO2-m1/triplet-geom/optg-freq-pbe0/SO-XMS/UO2_CH3SO2_SO2-m1-triplet.casscf.MB.rasscf_singlets.molden

    Timing: Wall=265.24 User=1591.98 System=44.59
