   This run of MOLCAS is using the pymolcas driver

                             OPE
                             OPE          NMOL  CASOP  ENMOLC A   SO
                 OPE        NMOLC        AS  OP EN  MO LC     AS  OP
                OPENM       OL CA        SO  PE NM  OL CA     SOP EN
                OP EN      MO   LC       AS  OP ENMOL  CASO   PENMOL
                OP  EN     MO   LC       AS  OP EN     MO     LC ASO
               OP   E  NMOL  C  AS       OP  EN MO     LC     AS  OP
               OP  E   NMO   LC AS        OPEN  MO     LCASOP EN   M
               O  PEN   MO  LCA  SO
            OPE   NMO   L   CAS    OP
        OPENMOL  CASOP     ENMOL   CASOPE
     OPENMOLCA   SOPENMOLCASOPEN   MOLCASOPE
    OPENMOLCAS   OP           EN   MOL    CAS
    OPENMOLCAS       OP  ENM        O     LCA
    OPENMOLCAS    OPEN  MOLCASO     P  E  NMO
    OPENMOLCAS     OP               E  N  MOL
    OPENMOLCA   SO           PENM   O  L  CAS    OPEN    MO    LCAS
    OPENMOLCA   SOP           ENM   O  L  CAS   OP  EN  MOLC  AS   O
    OPENMOLCA   SOPE           NM      O  LCA   S      OP  EN MO
    OPENMOLC                AS         O  PEN   M      OL  CA  SOPE
    OPENMO        LCASOPE  NMOL        C  ASO   P      ENMOLC     AS
    OPE     NMO      LCA  SO     P     E   NM   OL  CA SO  PE N   MO
          OPENMOLCA            SOPE   NMO        LCAS  O    P  ENMO
     OPENMOLCASOPENMOLCASOPENMOLCASOPENMOLCA
        OPENMOLCASOPENMOLCASOPENMOLCASOPE
            OPENMOLCASOPENMOLCASOPENM
               OPENMOLCASOPENMOLCA        version: 18.09
                   OPENMOLCASO
                       OPE                tag: 259-g52797e1-dirty

 OpenMolcas is free software; you can redistribute it and/or modify it
 under the terms of the GNU Lesser General Public License version 2.1.
 OpenMolcas is distributed in the hope that it will be useful, but it
 is provided "as is" and without any express or implied warranties.
 For more details see the full text of the license in the file
 LICENSE or in <http://www.gnu.org/licenses/>.

                 Copyright (C) The OpenMolcas Authors
           For the author list and the recommended citation,
                   consult the file CONTRIBUTORS.md

           *************************************************
           * pymolcas version py2.05                       *
           *   build e639e37c9a57315123c35f99e509df06      *
           *   (after the EMIL interpreter by V. Veryazov) *
           *************************************************

configuration info
------------------
C Compiler ID: Intel
C flags: -I/share/apps/fftw/3.3.8/include -std=gnu99 -mcmodel=large -qopenmp
Fortran Compiler ID: Intel
Fortran flags: -fpp -mcmodel=large -i8 -r8 -heap-arrays -qopenmp
Definitions: _MOLCAS_;_I8_;_LINUX_;_MKL_;_FDE_
Parallel: OFF (GA=OFF)


   ---------------------------------------------------------------------------------------------------------------------------
  |
  |           Project: UO2_CH3SO2_SO2-m1-triplet.rassi-SO-casscf-xmscaspt2.VTZP
  |    Submitted from: /home/vallet/John-sulfinate/U-complexes/UO2_CH3SO2_SO2-m1/triplet-geom/optg-freq-pbe0/SO-XMS
  |      Scratch area: /state/partition2/vallet/655709.phlam-s-sakura/UO2_CH3SO2_SO2-m1-triplet.rassi-SO-casscf-xmscaspt2.VTZP
  |   Save outputs to: /home/vallet/John-sulfinate/U-complexes/UO2_CH3SO2_SO2-m1/triplet-geom/optg-freq-pbe0/SO-XMS
  |            Molcas: /home/pcmt/OpenMolcas/OpenMolcas-20190114
  |
  | Scratch area is empty
  |
  |    MOLCAS_DRIVER = /home/pcmt/OpenMolcas/OpenMolcas-20190114/sbin/pymolcas
  |   MOLCAS_LICENSE = /home/pcmt/molcas/license
  |    MOLCAS_MOLDEN = ON
  |    MOLCAS_NPROCS = 1
  |    MOLCAS_SOURCE = /home/pcmt/OpenMolcas/OpenMolcas-20190114
  | MOLCAS_STRUCTURE = 0
  |
   ---------------------------------------------------------------------------------------------------------------------------

++ ---------   Input file   ---------

&GATEWAY
   COORD=$HomeDir/UO2_CH3SO2_SO2-m1.pbe0.optg-zaxis.xyz
   BASIS=ANO-RCC-VTZP
   Group=Nosym
   ANGM=0.0 0.0 0.0
   RICD

>>> COPY $Project.RunFile $HomeDir

&SEWARD

>>> COPY $HomeDir/UO2_CH3SO2_SO2-m1-triplet.casscf.MB.RunFile RUNFIL1

>>> COPY $Project.RunFile RUNFIL2

>>> COPY $HomeDir/UO2_CH3SO2_SO2-m1-triplet.casscf.MB.RasOrb_triplets INPORB

&EXPBAS

>>> COPY $Project.ExpOrb $HomeDir/$Project.ExpOrb_triplets

>>> COPY $HomeDir/UO2_CH3SO2_SO2-m1-triplet.casscf.MB.RasOrb_singlets INPORB

&EXPBAS

>>> COPY $Project.ExpOrb $HomeDir/$Project.ExpOrb_singlets

>>> COPY $HomeDir/$Project.ExpOrb_triplets INPORB

&RASSCF
   Spin=3
   Symmetry=1
   Nactel=2 0 0
   Inactive=90
   Ras2=5
   CIRoots=4 4 1
   Lumorb

>>> COPY $Project.JobIph $HomeDir/$Project.JobIph_triplets

>>> COPY $Project.RasOrb $HomeDir/$Project.RasOrb_triplets

&CASPT2
    IPEA=0.0
    XMUL= ALL
    THRESHOLDS= 1.0D-09 1.0D-07
    MAXITER=150
    CONVERGENCE=1.0D-6
    IMAG=0.1

>>> COPY $Project.JobMix $HomeDir/$Project.JobMix_triplets

>>> COPY $HomeDir/$Project.ExpOrb_singlets INPORB

&RASSCF
   Spin=1
   Symmetry=1
   Nactel=2 0 0
   Inactive=90
   Ras2=5
   CIRoots=4 4 1

>>> COPY $Project.JobIph $HomeDir/$Project.JobIph_singlets

>>> COPY $Project.RasOrb $HomeDir/$Project.RasOrb_singlets

&CASPT2
    IPEA=0.0
    XMUL= ALL
    THRESHOLDS= 1.0D-09 1.0D-07
    MAXITER=150
    CONVERGENCE=1.0D-6
    IMAG=0.1

>>> COPY $Project.JobMix $HomeDir/$Project.JobMix_singlets

>>> COPY $HomeDir/$Project.JobIph_triplets JOB001

>>> COPY $HomeDir/$Project.JobIph_singlets JOB002

&RASSI
    EJob
    SPINorbit

>>> COPY $HomeDir/$Project.JobMix_triplets JOB001

>>> COPY $HomeDir/$Project.JobMix_singlets JOB002

&RASSI
    EJob
    SPINorbit

-- ----------------------------------

--- Start Module: gateway at Fri Dec  6 15:08:35 2019 ---
 
()()()()()()()()()()()()()()()()()()()()()()()()()()()()()()()()()()()()()()()()()()()()()()()()()()

                                              &GATEWAY

                                   only a single process is used
                       available to each process: 65 GB of memory, 16 threads
()()()()()()()()()()()()()()()()()()()()()()()()()()()()()()()()()()()()()()()()()()()()()()()()()()
 
 
++    Symmetry information:
      ---------------------
 
                    Character Table for C1 
 
                             E  
                    a        1  x, y, xy, Rz, z, xz, Ry, yz, Rx, I
--
 
 
++    Basis set information:
      ----------------------
 
 
      Basis set label: C.ANO-RCC...4S3P2D1F.
 
      Electronic valence basis set:
      ------------------
      Associated Effective Charge   6.000000 au
      Associated Actual Charge      6.000000 au
      Nuclear Model: Point charge
 
      Shell  nPrim  nBasis  Cartesian Spherical Contaminant
         s      14       4        X                  
         p       9       3        X                  
         d       4       2                 X         
         f       3       1                 X         
 
 
      Basis set label: S.ANO-RCC...5S4P2D1F.
 
      Electronic valence basis set:
      ------------------
      Associated Effective Charge  16.000000 au
      Associated Actual Charge     16.000000 au
      Nuclear Model: Point charge
 
      Shell  nPrim  nBasis  Cartesian Spherical Contaminant
         s      17       5        X                  
         p      12       4        X                  
         d       5       2                 X         
         f       4       1                 X         
 
 
      Basis set label: O.ANO-RCC...4S3P2D1F.
 
      Electronic valence basis set:
      ------------------
      Associated Effective Charge   8.000000 au
      Associated Actual Charge      8.000000 au
      Nuclear Model: Point charge
 
      Shell  nPrim  nBasis  Cartesian Spherical Contaminant
         s      14       4        X                  
         p       9       3        X                  
         d       4       2                 X         
         f       3       1                 X         
 
 
      Basis set label: U.ANO-RCC...9S8P6D4F2G1H.
 
      Electronic valence basis set:
      ------------------
      Associated Effective Charge  92.000000 au
      Associated Actual Charge     92.000000 au
      Nuclear Model: Point charge
 
      Shell  nPrim  nBasis  Cartesian Spherical Contaminant
         s      26       9        X                  
         p      23       8        X                  
         d      17       6                 X         
         f      13       4                 X         
         g       5       2                 X         
         h       3       1                 X         
 
 
      Basis set label: O.ANO-RCC...4S3P2D1F.
 
      Electronic valence basis set:
      ------------------
      Associated Effective Charge   8.000000 au
      Associated Actual Charge      8.000000 au
      Nuclear Model: Point charge
 
      Shell  nPrim  nBasis  Cartesian Spherical Contaminant
         s      14       4        X                  
         p       9       3        X                  
         d       4       2                 X         
         f       3       1                 X         
 
 
      Basis set label: S.ANO-RCC...5S4P2D1F.
 
      Electronic valence basis set:
      ------------------
      Associated Effective Charge  16.000000 au
      Associated Actual Charge     16.000000 au
      Nuclear Model: Point charge
 
      Shell  nPrim  nBasis  Cartesian Spherical Contaminant
         s      17       5        X                  
         p      12       4        X                  
         d       5       2                 X         
         f       4       1                 X         
 
 
      Basis set label: O.ANO-RCC...4S3P2D1F.
 
      Electronic valence basis set:
      ------------------
      Associated Effective Charge   8.000000 au
      Associated Actual Charge      8.000000 au
      Nuclear Model: Point charge
 
      Shell  nPrim  nBasis  Cartesian Spherical Contaminant
         s      14       4        X                  
         p       9       3        X                  
         d       4       2                 X         
         f       3       1                 X         
 
 
      Basis set label: H.ANO-RCC...3S2P1D.
 
      Electronic valence basis set:
      ------------------
      Associated Effective Charge   1.000000 au
      Associated Actual Charge      1.000000 au
      Nuclear Model: Point charge
 
      Shell  nPrim  nBasis  Cartesian Spherical Contaminant
         s       8       3        X                  
         p       4       2        X                  
         d       3       1                 X         
--
 
 
++    Molecular structure info:
      -------------------------
 
                    ************************************************ 
                    **** Cartesian Coordinates / Bohr, Angstrom **** 
                    ************************************************ 
 
     Center  Label                x              y              z                     x              y              z
        1      C1               0.835259      -6.334986       3.824106              0.442000      -3.352330       2.023630
        2      S2               0.764980      -5.801951       0.439286              0.404810      -3.070260       0.232460
        3      O3              -1.763436      -4.414230       0.122246             -0.933170      -2.335910       0.064690
        4      U4               0.000000       0.000000       0.000000              0.000000       0.000000       0.000000
        5      O5               1.767839       4.484358       0.023716              0.935500       2.373020       0.012550
        6      S6              -0.773314       5.865143       0.044503             -0.409220       3.103700       0.023550
        7      O7              -2.869738       3.872899       0.023716             -1.518600       2.049450       0.012550
        8      O8               2.847307      -3.806305       0.122246              1.506730      -2.014210       0.064690
        9      O9              -0.001965       0.014910      -3.382761             -0.001040       0.007890      -1.790080
       10      O10              0.000000       0.000000       3.398276              0.000000       0.000000       1.798290
       11      H11              2.655708      -7.172210       4.305212              1.405340      -3.795370       2.278220
       12      H12              0.592127      -4.490934       4.713601              0.313340      -2.376500       2.494330
       13      H13             -0.705964      -7.615445       4.305212             -0.373580      -4.029920       2.278220
 
                    *************************************** 
                    *    InterNuclear Distances / Bohr    * 
                    *************************************** 
 
               1 C1            2 S2            3 O3            4 U4            5 O5            6 S6    
    1 C1       0.000000
    2 S2       3.427255        0.000000
    3 O3       4.913887        2.901580        0.000000
    4 U4       7.446710        5.868628        4.755006        0.000000
    5 O5      11.505254       10.343431        9.574157        4.820299        0.000000
    6 S6      12.873074       11.774688       10.327241        5.916071        2.892137        0.000000
    7 O7      11.505255       10.343432        8.361228        4.820302        4.677713        2.892138
    8 O8       4.913892        2.901586        4.650647        4.755004        8.361223       10.327238
    9 O9       9.641631        7.002293        5.916514        3.382794        5.891711        6.823954
   10 O10      6.403986        6.557701        5.772998        3.398276        5.884078        6.800420
   11 H11      2.060689        4.516398        6.680755        8.776573       12.449702       14.138048
   12 H12      2.061756        4.474194        5.160920        6.537364       10.194762       11.441732
   13 H13      2.060681        4.516395        5.372450        8.776573       13.071195       14.138049
 
               7 O7            8 O8            9 O9           10 O10          11 H11          12 H12   
    7 O7       0.000000
    8 O8       9.574158        0.000000
    9 O9       5.891713        5.916512        0.000000
   10 O10      5.884080        5.772996        6.781053        0.000000
   11 H11     13.071197        5.372450       10.854623        7.701682        0.000000
   12 H12     10.194765        5.160919        9.284753        4.716904        3.407989        0.000000
   13 H13     12.449706        6.680755       10.854624        7.701683        3.390766        3.407989
 
              13 H13   
   13 H13      0.000000
 
                    ******************************************* 
                    *    InterNuclear Distances / Angstrom    * 
                    ******************************************* 
 
               1 C1            2 S2            3 O3            4 U4            5 O5            6 S6    
    1 C1       0.000000
    2 S2       1.813625        0.000000
    3 O3       2.600317        1.535450        0.000000
    4 U4       3.940629        3.105544        2.516241        0.000000
    5 O5       6.088318        5.473508        5.066426        2.550792        0.000000
    6 S6       6.812138        6.230896        5.464940        3.130650        1.530453        0.000000
    7 O7       6.088319        5.473509        4.424571        2.550794        2.475339        1.530454
    8 O8       2.600319        1.535453        2.461017        2.516240        4.424569        5.464939
    9 O9       5.102132        3.705454        3.130884        1.790098        3.117759        3.611081
   10 O10      3.388843        3.470186        3.054939        1.798290        3.113720        3.598627
   11 H11      1.090470        2.389975        3.535303        4.644362        6.588099        7.481533
   12 H12      1.091034        2.367641        2.731041        3.459424        5.394836        6.054704
   13 H13      1.090466        2.389973        2.842978        4.644363        6.916979        7.481533
 
               7 O7            8 O8            9 O9           10 O10          11 H11          12 H12   
    7 O7       0.000000
    8 O8       5.066426        0.000000
    9 O9       3.117760        3.130883        0.000000
   10 O10      3.113721        3.054938        3.588379        0.000000
   11 H11      6.916980        2.842978        5.744019        4.075555        0.000000
   12 H12      5.394837        2.731041        4.913280        2.496078        1.803430        0.000000
   13 H13      6.588101        3.535303        5.744020        4.075555        1.794316        1.803430
 
              13 H13   
   13 H13      0.000000
 
                    ************************************** 
                    *    Valence Bond Angles / Degree    * 
                    ************************************** 
                          Atom centers                 Phi
                     11 H11      1 C1      12 H12      111.52
                     11 H11      1 C1      13 H13      110.72
                     12 H12      1 C1      13 H13      111.52
                      3 O3       2 S2       8 O8       106.53
                      5 O5       6 S6       7 O7       107.94
--
 
 
            Nuclear Potential Energy           2252.56891386 au
 
--- Stop Module: gateway at Fri Dec  6 15:23:17 2019 /rc=_RC_ALL_IS_WELL_ ---
*** files: UO2_CH3SO2_SO2-m1-triplet.rassi-SO-casscf-xmscaspt2.VTZP.RICDLib xmldump
    saved to directory /home/vallet/John-sulfinate/U-complexes/UO2_CH3SO2_SO2-m1/triplet-geom/optg-freq-pbe0/SO-XMS
--- Module gateway spent 14 minutes 41 seconds ---

>>> COPY UO2_CH3SO2_SO2-m1-triplet.rassi-SO-casscf-xmscaspt2.VTZP.RunFile /home/vallet/John-sulfinate/U-complexes/UO2_CH3SO2_SO2-m1/triplet-geom/optg-freq-pbe0/SO-XMS

--- Start Module: seward at Fri Dec  6 15:23:17 2019 ---
 
()()()()()()()()()()()()()()()()()()()()()()()()()()()()()()()()()()()()()()()()()()()()()()()()()()

                                              &SEWARD

                                   only a single process is used
                       available to each process: 65 GB of memory, 16 threads
()()()()()()()()()()()()()()()()()()()()()()()()()()()()()()()()()()()()()()()()()()()()()()()()()()
 
               SEWARD will generate:
                  Multipole Moment integrals up to order  2
                  Kinetic Energy integrals
                  Nuclear Attraction integrals (point charge)
                  One-Electron Hamiltonian integrals
                  Velocity integrals
                  Relativistic Douglas-Kroll-Hess integrals:
                    - Parametrization         : EXP
                    - DKH order of Hamiltonian: 2
                    - DKH order of Properties : 0
                         - multipole moment operators
                         - electric potential operators
                         - contact operators
                  Orbital angular momentum around ( 0.0000  0.0000  0.0000 )
                  Atomic mean-field integrals
                  RI decomposed two-electron repulsion integrals stored Cholesky style
                   - acCD auxiliary basis
                   - CD Threshold:   0.10E-03
 
                   Integrals are discarded if absolute value <: 0.10E-13
                   Integral cutoff threshold is set to       <: 0.10E-15
 
            Nuclear Potential Energy           2252.56891386 au
 
 
      Basis set specifications :
      Symmetry species         a  
      Basis functions          440
 
 
 Post_2Center_RI
 Detected lin. dependences in the auxiliary basis.
 # of AuxBas before l. d. removal:   4129
 # of AuxBas after  l. d. removal:   4110
 
 Sorry, Molden does not know how to handle
 functions with angular momentum larger than g
--- Stop Module: seward at Fri Dec  6 15:30:31 2019 /rc=_RC_ALL_IS_WELL_ ---
*** files: UO2_CH3SO2_SO2-m1-triplet.rassi-SO-casscf-xmscaspt2.VTZP.GssOrb UO2_CH3SO2_SO2-m1-triplet.rassi-SO-casscf-xmscaspt2.VTZP.guessorb.h5 xmldump
    saved to directory /home/vallet/John-sulfinate/U-complexes/UO2_CH3SO2_SO2-m1/triplet-geom/optg-freq-pbe0/SO-XMS
--- Module seward spent 7 minutes 13 seconds ---

>>> COPY /home/vallet/John-sulfinate/U-complexes/UO2_CH3SO2_SO2-m1/triplet-geom/optg-freq-pbe0/SO-XMS/UO2_CH3SO2_SO2-m1-triplet.casscf.MB.RunFile RUNFIL1

>>> COPY UO2_CH3SO2_SO2-m1-triplet.rassi-SO-casscf-xmscaspt2.VTZP.RunFile RUNFIL2

>>> COPY /home/vallet/John-sulfinate/U-complexes/UO2_CH3SO2_SO2-m1/triplet-geom/optg-freq-pbe0/SO-XMS/UO2_CH3SO2_SO2-m1-triplet.casscf.MB.RasOrb_triplets INPORB

--- Start Module: expbas at Fri Dec  6 15:30:32 2019 ---
 
()()()()()()()()()()()()()()()()()()()()()()()()()()()()()()()()()()()()()()()()()()()()()()()()()()

                                              &EXPBAS

                                   only a single process is used
                       available to each process: 65 GB of memory, 16 threads
()()()()()()()()()()()()()()()()()()()()()()()()()()()()()()()()()()()()()()()()()()()()()()()()()()
 

 Header on input orbitals file:
* RASSCF average (pseudo-natural) orbitals

 Information from input runfile
           Number of symmetries    1
      Number of basis functions  115

 Information from expanded basis set runfile
           Number of symmetries    1
      Number of basis functions  440
 New orbitals have been built in file EXPORB
--- Stop Module: expbas at Fri Dec  6 15:30:32 2019 /rc=_RC_ALL_IS_WELL_ ---
*** files: UO2_CH3SO2_SO2-m1-triplet.rassi-SO-casscf-xmscaspt2.VTZP.ExpOrb xmldump
    saved to directory /home/vallet/John-sulfinate/U-complexes/UO2_CH3SO2_SO2-m1/triplet-geom/optg-freq-pbe0/SO-XMS

>>> COPY UO2_CH3SO2_SO2-m1-triplet.rassi-SO-casscf-xmscaspt2.VTZP.ExpOrb /home/vallet/John-sulfinate/U-complexes/UO2_CH3SO2_SO2-m1/triplet-geom/optg-freq-pbe0/SO-XMS/UO2_CH3SO2_SO2-m1-triplet.rassi-SO-casscf-xmscaspt2.VTZP.ExpOrb_triplets

>>> COPY /home/vallet/John-sulfinate/U-complexes/UO2_CH3SO2_SO2-m1/triplet-geom/optg-freq-pbe0/SO-XMS/UO2_CH3SO2_SO2-m1-triplet.casscf.MB.RasOrb_singlets INPORB

--- Start Module: expbas at Fri Dec  6 15:30:32 2019 ---
 
()()()()()()()()()()()()()()()()()()()()()()()()()()()()()()()()()()()()()()()()()()()()()()()()()()

                                              &EXPBAS

                                   only a single process is used
                       available to each process: 65 GB of memory, 16 threads
()()()()()()()()()()()()()()()()()()()()()()()()()()()()()()()()()()()()()()()()()()()()()()()()()()
 

 Header on input orbitals file:
* RASSCF average (pseudo-natural) orbitals

 Information from input runfile
           Number of symmetries    1
      Number of basis functions  115

 Information from expanded basis set runfile
           Number of symmetries    1
      Number of basis functions  440
 New orbitals have been built in file EXPORB
--- Stop Module: expbas at Fri Dec  6 15:30:32 2019 /rc=_RC_ALL_IS_WELL_ ---
*** files: UO2_CH3SO2_SO2-m1-triplet.rassi-SO-casscf-xmscaspt2.VTZP.ExpOrb xmldump
    saved to directory /home/vallet/John-sulfinate/U-complexes/UO2_CH3SO2_SO2-m1/triplet-geom/optg-freq-pbe0/SO-XMS

>>> COPY UO2_CH3SO2_SO2-m1-triplet.rassi-SO-casscf-xmscaspt2.VTZP.ExpOrb /home/vallet/John-sulfinate/U-complexes/UO2_CH3SO2_SO2-m1/triplet-geom/optg-freq-pbe0/SO-XMS/UO2_CH3SO2_SO2-m1-triplet.rassi-SO-casscf-xmscaspt2.VTZP.ExpOrb_singlets

>>> COPY /home/vallet/John-sulfinate/U-complexes/UO2_CH3SO2_SO2-m1/triplet-geom/optg-freq-pbe0/SO-XMS/UO2_CH3SO2_SO2-m1-triplet.rassi-SO-casscf-xmscaspt2.VTZP.ExpOrb_triplets INPORB

--- Start Module: rasscf at Fri Dec  6 15:30:33 2019 ---
 
()()()()()()()()()()()()()()()()()()()()()()()()()()()()()()()()()()()()()()()()()()()()()()()()()()

                                              &RASSCF

                                   only a single process is used
                       available to each process: 65 GB of memory, 16 threads
()()()()()()()()()()()()()()()()()()()()()()()()()()()()()()()()()()()()()()()()()()()()()()()()()()
 
 
      Header of the ONEINT file:
      --------------------------
      
      Integrals generated by seward 4.2.0  , Fri Dec  6 15:23:18 2019
 
 
      OrdInt status: non-squared
 
 
      Cartesian coordinates in Angstrom:
      -----------------------------------------------------
      No.  Label        X            Y            Z        
      -----------------------------------------------------
       1   C1         0.44200000  -3.35233000   2.02363000
       2   S2         0.40481000  -3.07026000   0.23246000
       3   O3        -0.93317000  -2.33591000   0.06469000
       4   U4         0.00000000   0.00000000   0.00000000
       5   O5         0.93550000   2.37302000   0.01255000
       6   S6        -0.40922000   3.10370000   0.02355000
       7   O7        -1.51860000   2.04945000   0.01255000
       8   O8         1.50673000  -2.01421000   0.06469000
       9   O9        -0.00104000   0.00789000  -1.79008000
      10   O10        0.00000000   0.00000000   1.79829000
      11   H11        1.40534000  -3.79537000   2.27822000
      12   H12        0.31334000  -2.37650000   2.49433000
      13   H13       -0.37358000  -4.02992000   2.27822000
      -----------------------------------------------------
      Nuclear repulsion energy = 2252.56891386
 
++    Wave function specifications:
      -----------------------------
 
      Number of closed shell electrons         180
      Number of electrons in active shells       2
      Max number of holes in RAS1 space          0
      Max nr of electrons in RAS3 space          0
      Number of inactive orbitals               90
      Number of active orbitals                  5
      Number of secondary orbitals             345
      Spin quantum number                      1.0
      State symmetry                             1
--
 
++    Orbital specifications:
      -----------------------
 
      Symmetry species                           1
                                                 a
      Frozen orbitals                            0
      Inactive orbitals                         90
      Active orbitals                            5
      RAS1 orbitals                              0
      RAS2 orbitals                              5
      RAS3 orbitals                              0
      Secondary orbitals                       345
      Deleted orbitals                           0
      Number of basis functions                440
--
 
++    CI expansion specifications:
      ----------------------------
 
      Number of CSFs                            10
      Number of determinants                    10
      Number of root(s) required                 4
      Root chosen for geometry opt.              4
      CI roots used                              1     2     3     4
      weights                                0.250 0.250 0.250 0.250
      highest root included in the CI            4
      max. size of the explicit Hamiltonian     10
--
 
++    Optimization specifications:
      ----------------------------
 
      RASSCF algorithm: LK RI/DF
      Maximum number of macro iterations       200
      Maximum number of SX iterations          100
      Threshold for RASSCF energy            0.100E-07
      Threshold for max MO rotation          0.100E+00
      Threshold for max BLB element          0.100E-03
      Level shift parameter                  0.500E+00
      Make Quasi-Newton update
--
 
      The MO-coefficients are taken from the file:
      INPORB                                                                                                                          
      Title:Basis set expanded orbital file EXPORB                                         
 
      Total molecular charge   -1.00
 
      ************************************************************************************************************************
      *                                                                                                                      *
      *                                            Wave function control section                                             *
      *                                                                                                                      *
      ************************************************************************************************************************
 
 
                                         RASSCF iterations: Energy and convergence statistics
                                         ----------------------------------------------------
 
      Iter CI   SX   CI       RASSCF       Energy    max ROT     max BLB   max BLB  Level Ln srch  Step   QN   Walltime
          iter iter root      energy       change     param      element    value   shift minimum  type update hh:mm:ss
 Nr of preliminary CI iterations:   1
      Total energies have been shifted. Add               -29000.00 au
        1   1   18    0  -235.59696660    0.00E+00   0.38E-01   62 149 1 -0.24E+00*  0.55   0.00    SX    NO    0:02:53
        2   1   21    0  -236.36981785   -0.77E+00* -0.42E-01   66 116 1  0.94E-01*  0.58   0.00    SX    NO    0:01:37
        3   1   21    0  -236.56155734   -0.19E+00* -0.35E-01   77 110 1 -0.62E-01*  0.56   0.00    SX    NO    0:01:58
        4   1   20    0  -236.62569174   -0.64E-01* -0.26E-01   77 110 1 -0.42E-01*  0.57   0.00    SX    NO    0:01:58
        5   1   19    0  -236.64993712   -0.24E-01* -0.32E-01   77 110 1 -0.28E-01*  0.56   2.50    LS   YES    0:02:01
        6   1   19    0  -236.66446252   -0.15E-01* -0.22E-01   74  91 1 -0.12E-01*  0.56   1.36    QN   YES    0:02:03
        7   1   18    0  -236.66777945   -0.33E-02* -0.13E-01   74  91 1 -0.60E-02*  0.57   1.25    QN   YES    0:01:51
        8   1   17    0  -236.66877759   -0.10E-02*  0.67E-02   76 109 1 -0.31E-02*  0.56   1.35    QN   YES    0:02:06
        9   1   16    0  -236.66907745   -0.30E-03* -0.28E-02   77 110 1  0.17E-02*  0.57   1.28    QN   YES    0:02:10
       10   1   14    0  -236.66913187   -0.54E-04* -0.22E-02   74  91 1 -0.11E-02*  0.57   1.44    QN   YES    0:02:20
       11   1   13    0  -236.66914903   -0.17E-04*  0.20E-02   74  91 1 -0.64E-03*  0.57   1.43    QN   YES    0:02:15
       12   1   12    0  -236.66915440   -0.54E-05* -0.19E-02   74  91 1 -0.28E-03*  0.57   1.47    QN   YES    0:02:20
       13   1   12    0  -236.66915655   -0.21E-05*  0.21E-02   94 102 1  0.13E-03*  0.57   1.63    QN   YES    0:02:43
       14   1   11    0  -236.66915780   -0.13E-05*  0.20E-02   67 103 1  0.11E-03*  0.57   1.64    QN   YES    0:02:41
       15   1   11    0  -236.66915856   -0.75E-06*  0.18E-02   74  91 1  0.17E-03*  0.57   1.66    QN   YES    0:02:37
       16   1   10    0  -236.66915902   -0.46E-06*  0.14E-02   74  91 1  0.15E-03*  0.57   1.63    QN   YES    0:02:20
       17   1   10    0  -236.66915929   -0.27E-06* -0.75E-03   74  91 1  0.93E-04   0.57   1.56    QN   YES    0:02:36
       18   1    9    0  -236.66915941   -0.12E-06*  0.25E-03   74  91 1  0.37E-04   0.57   1.52    QN   YES    0:02:40
       19   1    8    0  -236.66915945   -0.38E-07*  0.71E-04   91 287 1 -0.17E-04   0.57   1.39    QN   YES    0:02:44
       20   1    7    0  -236.66915946   -0.10E-07* -0.66E-04   91 287 1 -0.98E-05   0.57   1.46    QN   YES    0:02:48
       21   1    7    0  -236.66915946   -0.30E-08  -0.61E-04   93 100 1  0.52E-05   0.57   1.69    QN   YES    0:02:47
      Convergence after 21 iterations
       22   1    7    0  -236.66915946   -0.12E-08  -0.61E-04   93 100 1  0.41E-05   0.57   1.69    QN   YES    0:02:48
 
      ************************************************************************************************************************
                                                      Wave function printout:
                       occupation of active orbitals, and spin coupling of open shells (u,d: Spin up or down)
      ************************************************************************************************************************
 
      Note: transformation to natural orbitals
      has been made, which may change the order of the CSFs.
 
      printout of CI-coefficients larger than  0.05 for root  1
      energy=  -29236.673298
      conf/sym  11111     Coeff  Weight
             4  u000u   0.99904 0.99808
 
      printout of CI-coefficients larger than  0.05 for root  2
      energy=  -29236.670469
      conf/sym  11111     Coeff  Weight
             1  uu000   0.99881 0.99762
 
      printout of CI-coefficients larger than  0.05 for root  3
      energy=  -29236.670052
      conf/sym  11111     Coeff  Weight
             2  u0u00   0.99904 0.99808
 
      printout of CI-coefficients larger than  0.05 for root  4
      energy=  -29236.662818
      conf/sym  11111     Coeff  Weight
             3  u00u0   0.99881 0.99762
 
      Natural orbitals and occupation numbers for root  1
      sym 1:   1.000000   0.000000  -0.000000   0.000000   1.000000
 
      Natural orbitals and occupation numbers for root  2
      sym 1:   1.000000   1.000000   0.000000   0.000000   0.000000
 
      Natural orbitals and occupation numbers for root  3
      sym 1:   1.000000   0.000000   1.000000   0.000000   0.000000
 
      Natural orbitals and occupation numbers for root  4
      sym 1:   1.000000   0.000000   0.000000   1.000000   0.000000
 
      ************************************************************************************************************************
      *                                                                                                                      *
      *                                                    Final results                                                     *
      *                                                                                                                      *
      ************************************************************************************************************************
 
 
++    Wave function specifications:
      -----------------------------
 
      Number of closed shell electrons         180
      Number of electrons in active shells       2
      Max number of holes in RAS1 space          0
      Max nr of electrons in RAS3 space          0
      Number of inactive orbitals               90
      Number of active orbitals                  5
      Number of secondary orbitals             345
      Spin quantum number                      1.0
      State symmetry                             1
--
 
++    Orbital specifications:
      -----------------------
 
      Symmetry species                           1
                                                 a
      Frozen orbitals                            0
      Inactive orbitals                         90
      Active orbitals                            5
      RAS1 orbitals                              0
      RAS2 orbitals                              5
      RAS3 orbitals                              0
      Secondary orbitals                       345
      Deleted orbitals                           0
      Number of basis functions                440
--
 
++    CI expansion specifications:
      ----------------------------
 
      Number of CSFs                            10
      Number of determinants                    10
      Number of root(s) required                 4
      CI roots used                              1     2     3     4
      weights                                0.250 0.250 0.250 0.250
      highest root included in the CI            4
      Root passed to geometry opt.               4
--
 
++    Final optimization conditions:
      ------------------------------
 
      Average CI energy                          -29236.66915946
      RASSCF energy for state  4                 -29236.66281844
      Super-CI energy                                -0.00000000
      RASSCF energy change                           -0.00000000
      Max change in MO coefficients               0.630E-04
      Max non-diagonal density matrix element    -0.613E-04
      Maximum BLB matrix element                  0.411E-05
      (orbital pair  93, 100 in symmetry   1)
      Norm of electronic gradient            0.154E+00
--
 
 
      Final state energy(ies):
      ------------------------
 
::    RASSCF root number  1 Total energy: -29236.67329801
::    RASSCF root number  2 Total energy: -29236.67046920
::    RASSCF root number  3 Total energy: -29236.67005220
::    RASSCF root number  4 Total energy: -29236.66281844
 
++    Molecular orbitals:
      -------------------
 
      Pseudonatural active orbitals and approximate occupation numbers
 
 
      MOLECULAR ORBITALS FOR SYMMETRY SPECIES 1: a  
 
      INDEX  ENERGY  OCCUPATION COEFFICIENTS ...
          1-4260.2172    2.0000                                                                                                           
                95 U4     1s     ( 1.0000)
          2 -804.1832    2.0000                                                                                                           
                96 U4     2s     ( 1.0000)
          3 -674.8544    2.0000                                                                                                           
               120 U4     2pz    ( 0.9999)
          4 -674.8541    2.0000                                                                                                           
               104 U4     2px    (-0.1307) 112 U4     2py    ( 0.9914)
          5 -674.8539    2.0000                                                                                                           
               104 U4     2px    ( 0.9914) 112 U4     2py    ( 0.1307)
          6 -206.2313    2.0000                                                                                                           
                97 U4     3s     ( 1.0000)
          7 -169.6310    2.0000                                                                                                           
               105 U4     3px    (-0.1307) 113 U4     3py    ( 0.9914)
          8 -169.6306    2.0000                                                                                                           
               105 U4     3px    ( 0.9914) 113 U4     3py    ( 0.1307)
          9 -169.6247    2.0000                                                                                                           
               121 U4     3pz    ( 1.0000)
         10 -135.0548    2.0000                                                                                                           
               128 U4     3d2-   ( 0.2592) 152 U4     3d2+   ( 0.9658)
         11 -135.0547    2.0000                                                                                                           
               128 U4     3d2-   ( 0.9658) 152 U4     3d2+   (-0.2592)
         12 -135.0525    2.0000                                                                                                           
               134 U4     3d1-   ( 0.9914) 146 U4     3d1+   (-0.1307)
         13 -135.0525    2.0000                                                                                                           
               134 U4     3d1-   ( 0.1307) 146 U4     3d1+   ( 0.9914)
         14 -135.0514    2.0000                                                                                                           
               140 U4     3d0    ( 1.0000)
         15  -92.2609    2.0000                                                                                                           
                31 S2     1s     ( 1.0000)
         16  -92.2477    2.0000                                                                                                           
               245 S6     1s     ( 1.0000)
         17  -54.2225    2.0000                                                                                                           
                98 U4     4s     ( 1.0000)
         18  -42.0049    2.0000                                                                                                           
               106 U4     4px    (-0.1307) 114 U4     4py    ( 0.9914)
         19  -42.0043    2.0000                                                                                                           
               106 U4     4px    ( 0.9914) 114 U4     4py    ( 0.1307)
         20  -41.9929    2.0000                                                                                                           
               122 U4     4pz    ( 1.0000)
         21  -28.7652    2.0000                                                                                                           
               129 U4     4d2-   ( 0.9658) 153 U4     4d2+   (-0.2592)
         22  -28.7650    2.0000                                                                                                           
               129 U4     4d2-   ( 0.2592) 153 U4     4d2+   ( 0.9657)
         23  -28.7588    2.0000                                                                                                           
               135 U4     4d1-   ( 0.9914) 147 U4     4d1+   (-0.1307)
         24  -28.7587    2.0000                                                                                                           
               135 U4     4d1-   ( 0.1307) 147 U4     4d1+   ( 0.9914)
         25  -28.7559    2.0000                                                                                                           
               141 U4     4d0    ( 0.9998)
         26  -20.4353    2.0000                                                                                                           
               215 O5     1s     (-0.7107) 279 O7     1s     ( 0.7028)
         27  -20.4353    2.0000                                                                                                           
               215 O5     1s     ( 0.7028) 279 O7     1s     ( 0.7106)
         28  -20.4152    2.0000                                                                                                           
                65 O3     1s     (-0.7110) 309 O8     1s     ( 0.7024)
         29  -20.4152    2.0000                                                                                                           
                65 O3     1s     ( 0.7024) 309 O8     1s     ( 0.7110)
         30  -20.3713    2.0000                                                                                                           
               369 O10    1s     ( 0.9996)
         31  -20.3712    2.0000                                                                                                           
               339 O9     1s     ( 0.9996)
         32  -14.9770    2.0000                                                                                                           
               158 U4     4f3-   ( 0.3831) 182 U4     4f3+   ( 0.9234)
         33  -14.9768    2.0000                                                                                                           
               158 U4     4f3-   ( 0.9236) 182 U4     4f3+   (-0.3832)
         34  -14.9729    2.0000                                                                                                           
               162 U4     4f2-   (-0.1206) 170 U4     4f0    ( 0.8853) 178 U4     4f2+   (-0.4490)
         35  -14.9729    2.0000                                                                                                           
               162 U4     4f2-   ( 0.9658) 178 U4     4f2+   (-0.2592)
         36  -14.9727    2.0000                                                                                                           
               162 U4     4f2-   ( 0.2295) 170 U4     4f0    ( 0.4650) 178 U4     4f2+   ( 0.8550)
         37  -14.9640    2.0000                                                                                                           
               166 U4     4f1-   ( 0.9914) 174 U4     4f1+   (-0.1307)
         38  -14.9640    2.0000                                                                                                           
               166 U4     4f1-   ( 0.1307) 174 U4     4f1+   ( 0.9912)
         39  -12.5457    2.0000                                                                                                           
                99 U4     5s     ( 1.0004)
         40  -11.1321    2.0000                                                                                                           
                 1 C1     1s     ( 1.0010)
         41   -9.0018    2.0000                                                                                                           
                32 S2     2s     ( 0.9991)
         42   -8.9922    2.0000                                                                                                           
               246 S6     2s     ( 0.9990)
         43   -8.6408    2.0000                                                                                                           
               123 U4     5pz    ( 0.9994)
         44   -8.6351    2.0000                                                                                                           
               107 U4     5px    (-0.1307) 115 U4     5py    ( 0.9913)
         45   -8.6333    2.0000                                                                                                           
               107 U4     5px    ( 0.9914) 115 U4     5py    ( 0.1307)
         46   -6.6342    2.0000                                                                                                           
                36 S2     2px    ( 0.9920)  40 S2     2py    ( 0.1308)
         47   -6.6340    2.0000                                                                                                           
                40 S2     2py    (-0.5373)  44 S2     2pz    ( 0.8409)
         48   -6.6322    2.0000                                                                                                           
                36 S2     2px    (-0.1098)  40 S2     2py    ( 0.8331)  44 S2     2pz    ( 0.5415)
         49   -6.6237    2.0000                                                                                                           
               250 S6     2px    ( 0.9921) 254 S6     2py    ( 0.1308)
         50   -6.6227    2.0000                                                                                                           
               258 S6     2pz    ( 0.9999)
         51   -6.6222    2.0000                                                                                                           
               250 S6     2px    (-0.1307) 254 S6     2py    ( 0.9912)
         52   -4.1192    2.0000                                                                                                           
               142 U4     5d0    ( 0.9982)
         53   -4.1084    2.0000                                                                                                           
               136 U4     5d1-   ( 0.1307) 148 U4     5d1+   ( 0.9911)
         54   -4.1083    2.0000                                                                                                           
               136 U4     5d1-   ( 0.9911) 148 U4     5d1+   (-0.1307)
         55   -4.1003    2.0000                                                                                                           
               130 U4     5d2-   ( 0.2591) 154 U4     5d2+   ( 0.9655)
         56   -4.0997    2.0000                                                                                                           
               130 U4     5d2-   ( 0.9657) 154 U4     5d2+   (-0.2592)
         57   -2.0450    2.0000                                                                                                           
               100 U4     6s     ( 0.9659)
         58   -1.2975    2.0000                                                                                                           
               124 U4     6pz    ( 0.5303) 340 O9     2s     (-0.4364) 349 O9     2pz    (-0.1250) 370 O10    2s     ( 0.4353)
               379 O10    2pz    (-0.1244)
         59   -1.2772    2.0000                                                                                                           
                33 S2     3s     ( 0.1954)  66 O3     2s     ( 0.2847) 116 U4     6py    (-0.1322) 216 O5     2s     (-0.4059)
               247 S6     3s     (-0.2743) 280 O7     2s     (-0.4059) 310 O8     2s     ( 0.2847)
         60   -1.2702    2.0000                                                                                                           
                33 S2     3s     ( 0.2912)  66 O3     2s     ( 0.3956) 216 O5     2s     ( 0.2937) 247 S6     3s     ( 0.2100)
               280 O7     2s     ( 0.2937) 310 O8     2s     ( 0.3956)
         61   -1.1739    2.0000                                                                                                           
               216 O5     2s     ( 0.5872) 251 S6     3px    ( 0.2032) 280 O7     2s     (-0.5872)
         62   -1.1631    2.0000                                                                                                           
                37 S2     3px    ( 0.1984)  66 O3     2s     (-0.5880) 310 O8     2s     ( 0.5880)
         63   -1.0689    2.0000                                                                                                           
               100 U4     6s     (-0.2568) 143 U4     6d0    ( 0.1366) 340 O9     2s     ( 0.6355) 370 O10    2s     ( 0.6472)
      
         64   -0.9722    2.0000                                                                                                           
                33 S2     3s     (-0.1449) 108 U4     6px    ( 0.1195) 116 U4     6py    (-0.9062) 247 S6     3s     ( 0.1043)
      
         65   -0.9683    2.0000                                                                                                           
               108 U4     6px    ( 0.9483) 116 U4     6py    ( 0.1250)
         66   -0.8864    2.0000                                                                                                           
                 2 C1     2s     ( 0.5988)  33 S2     3s     ( 0.2839)  41 S2     3py    (-0.1016)  45 S2     3pz    ( 0.1889)
                66 O3     2s     (-0.2203) 116 U4     6py    (-0.1726) 310 O8     2s     (-0.2203) 399 H11    1s     ( 0.1234)
               427 H13    1s     ( 0.1234)
         67   -0.7550    2.0000                                                                                                           
               124 U4     6pz    (-0.7110) 171 U4     5f0    ( 0.1122) 340 O9     2s     (-0.5595) 349 O9     2pz    ( 0.1800)
               370 O10    2s     ( 0.5486) 379 O10    2pz    ( 0.1836)
         68   -0.7123    2.0000                                                                                                           
                33 S2     3s     ( 0.1417) 216 O5     2s     (-0.4455) 219 O5     2px    (-0.1975) 222 O5     2py    ( 0.1500)
               247 S6     3s     ( 0.7514) 280 O7     2s     (-0.4455) 283 O7     2px    ( 0.1519) 286 O7     2py    ( 0.1961)
      
         69   -0.6963    2.0000                                                                                                           
                 2 C1     2s     ( 0.3074)  11 C1     2pz    ( 0.1846)  33 S2     3s     (-0.6352)  66 O3     2s     ( 0.3852)
                69 O3     2px    (-0.1761)  72 O3     2py    ( 0.1240) 116 U4     6py    ( 0.1252) 216 O5     2s     (-0.1079)
               247 S6     3s     ( 0.1596) 280 O7     2s     (-0.1079) 310 O8     2s     ( 0.3852) 313 O8     2px    ( 0.1379)
               316 O8     2py    ( 0.1654) 399 H11    1s     ( 0.1010) 427 H13    1s     ( 0.1010)
         70   -0.5170    2.0000                                                                                                           
                 8 C1     2py    (-0.3280)  33 S2     3s     ( 0.1237)  41 S2     3py    (-0.2807)  45 S2     3pz    (-0.2416)
                69 O3     2px    (-0.1548)  72 O3     2py    (-0.1456)  75 O3     2pz    (-0.2464) 313 O8     2px    ( 0.1873)
               316 O8     2py    (-0.1005) 319 O8     2pz    (-0.2464) 399 H11    1s     ( 0.1659) 413 H12    1s     (-0.2486)
               427 H13    1s     ( 0.1660)
         71   -0.5103    2.0000                                                                                                           
                 5 C1     2px    (-0.2784)  37 S2     3px    (-0.3255)  66 O3     2s     (-0.2372)  69 O3     2px    ( 0.1839)
                72 O3     2py    (-0.2926) 216 O5     2s     (-0.1250) 219 O5     2px    (-0.1121) 222 O5     2py    ( 0.1781)
               251 S6     3px    ( 0.1835) 280 O7     2s     ( 0.1250) 286 O7     2py    (-0.2011) 310 O8     2s     ( 0.2372)
               313 O8     2px    ( 0.1018) 316 O8     2py    ( 0.3302) 399 H11    1s     (-0.2123) 427 H13    1s     ( 0.2123)
      
         72   -0.5016    2.0000                                                                                                           
                 2 C1     2s     (-0.1144)  11 C1     2pz    (-0.2676)  41 S2     3py    (-0.2390)  45 S2     3pz    ( 0.3212)
                66 O3     2s     ( 0.1827)  69 O3     2px    (-0.3102)  75 O3     2pz    ( 0.2322) 219 O5     2px    ( 0.1419)
               222 O5     2py    ( 0.1058) 255 S6     3py    ( 0.1412) 283 O7     2px    (-0.1645) 310 O8     2s     ( 0.1827)
               313 O8     2px    ( 0.3175) 319 O8     2pz    ( 0.2322)
         73   -0.4974    2.0000                                                                                                           
                 5 C1     2px    (-0.1697)  37 S2     3px    (-0.1289)  66 O3     2s     (-0.1034) 108 U4     6px    (-0.1207)
               216 O5     2s     ( 0.2932) 219 O5     2px    ( 0.2718) 222 O5     2py    (-0.3636) 251 S6     3px    (-0.4118)
               280 O7     2s     (-0.2932) 283 O7     2px    ( 0.1682) 286 O7     2py    ( 0.4216) 310 O8     2s     ( 0.1034)
               316 O8     2py    ( 0.1126) 399 H11    1s     (-0.1306) 427 H13    1s     ( 0.1306)
         74   -0.4881    2.0000                                                                                                           
                 8 C1     2py    ( 0.1050)  11 C1     2pz    ( 0.1287)  41 S2     3py    ( 0.1652)  45 S2     3pz    (-0.1019)
                69 O3     2px    ( 0.1265) 116 U4     6py    ( 0.1376) 216 O5     2s     ( 0.1499) 219 O5     2px    ( 0.3658)
               222 O5     2py    ( 0.2468) 247 S6     3s     ( 0.1815) 255 S6     3py    ( 0.4059) 280 O7     2s     ( 0.1499)
               283 O7     2px    (-0.4173) 286 O7     2py    ( 0.1435) 313 O8     2px    (-0.1208) 413 H12    1s     ( 0.1246)
      
         75   -0.4695    2.0000                                                                                                           
               225 O5     2pz    ( 0.5194) 259 S6     3pz    ( 0.3945) 289 O7     2pz    ( 0.5194)
         76   -0.4568    2.0000                                                                                                           
                 5 C1     2px    ( 0.4078)  37 S2     3px    (-0.2907)  66 O3     2s     (-0.1880)  69 O3     2px    ( 0.2110)
                72 O3     2py    (-0.2569) 310 O8     2s     ( 0.1880) 313 O8     2px    ( 0.1372) 316 O8     2py    ( 0.3028)
               399 H11    1s     ( 0.3338) 427 H13    1s     (-0.3338)
         77   -0.4384    2.0000                                                                                                           
                 8 C1     2py    (-0.3912)  11 C1     2pz    (-0.1538)  33 S2     3s     (-0.1337)  41 S2     3py    ( 0.1966)
                45 S2     3pz    ( 0.1646)  69 O3     2px    ( 0.1881)  72 O3     2py    ( 0.2513)  75 O3     2pz    ( 0.1681)
               313 O8     2px    (-0.2468) 316 O8     2py    ( 0.1940) 319 O8     2pz    ( 0.1681) 399 H11    1s     ( 0.1620)
               413 H12    1s     (-0.3922) 427 H13    1s     ( 0.1620)
         78   -0.3744    2.0000                                                                                                           
                75 O3     2pz    (-0.3321) 149 U4     6d1+   ( 0.1960) 225 O5     2pz    ( 0.3093) 289 O7     2pz    (-0.3093)
               319 O8     2pz    ( 0.3321) 343 O9     2px    (-0.3944) 373 O10    2px    ( 0.3974)
         79   -0.3701    2.0000                                                                                                           
                 8 C1     2py    ( 0.1094)  11 C1     2pz    (-0.1203)  33 S2     3s     ( 0.1094)  41 S2     3py    (-0.2577)
                72 O3     2py    ( 0.2485)  75 O3     2pz    (-0.2024) 143 U4     6d0    (-0.2502) 222 O5     2py    (-0.1439)
               247 S6     3s     ( 0.1453) 255 S6     3py    ( 0.2302) 286 O7     2py    (-0.1543) 316 O8     2py    ( 0.2491)
               319 O8     2pz    (-0.2024) 340 O9     2s     ( 0.1516) 346 O9     2py    (-0.1243) 349 O9     2pz    (-0.3967)
               370 O10    2s     ( 0.1417) 376 O10    2py    ( 0.1452) 379 O10    2pz    ( 0.3540)
         80   -0.3568    2.0000                                                                                                           
                69 O3     2px    (-0.1074)  72 O3     2py    (-0.1586)  75 O3     2pz    (-0.4180) 225 O5     2pz    (-0.4654)
               283 O7     2px    ( 0.1133) 289 O7     2pz    ( 0.4654) 313 O8     2px    (-0.1449) 316 O8     2py    ( 0.1253)
               319 O8     2pz    ( 0.4180)
         81   -0.3521    2.0000                                                                                                           
                45 S2     3pz    (-0.1387) 137 U4     6d1-   (-0.2057) 143 U4     6d0    (-0.1298) 346 O9     2py    ( 0.4608)
               349 O9     2pz    (-0.2316) 376 O10    2py    (-0.5462) 379 O10    2pz    ( 0.2810)
         82   -0.3499    2.0000                                                                                                           
                75 O3     2pz    ( 0.1014) 216 O5     2s     ( 0.1399) 219 O5     2px    ( 0.4782) 222 O5     2py    ( 0.4355)
               225 O5     2pz    ( 0.1278) 251 S6     3px    (-0.1433) 262 S6     3d2-   ( 0.1348) 280 O7     2s     (-0.1399)
               283 O7     2px    ( 0.5747) 286 O7     2py    (-0.2967) 289 O7     2pz    (-0.1278) 313 O8     2px    (-0.1097)
               319 O8     2pz    (-0.1014)
         83   -0.3373    2.0000                                                                                                           
                69 O3     2px    ( 0.2511)  72 O3     2py    ( 0.2670)  75 O3     2pz    ( 0.1910) 149 U4     6d1+   ( 0.1500)
               225 O5     2pz    (-0.3218) 283 O7     2px    ( 0.1044) 289 O7     2pz    ( 0.3218) 313 O8     2px    ( 0.3117)
               316 O8     2py    (-0.1928) 319 O8     2pz    (-0.1910) 343 O9     2px    (-0.3049) 373 O10    2px    ( 0.4579)
      
         84   -0.3346    2.0000                                                                                                           
                11 C1     2pz    ( 0.1199)  41 S2     3py    ( 0.2703)  52 S2     3d0    (-0.1091)  72 O3     2py    (-0.3216)
                75 O3     2pz    ( 0.2530) 100 U4     6s     ( 0.1658) 137 U4     6d1-   ( 0.1012) 143 U4     6d0    (-0.1179)
               316 O8     2py    (-0.3104) 319 O8     2pz    ( 0.2530) 340 O9     2s     ( 0.1014) 346 O9     2py    (-0.3893)
               349 O9     2pz    (-0.2948) 370 O10    2s     ( 0.1062) 376 O10    2py    ( 0.1456) 379 O10    2pz    ( 0.3590)
      
         85   -0.3313    2.0000                                                                                                           
                66 O3     2s     (-0.1002)  69 O3     2px    ( 0.3992)  72 O3     2py    ( 0.3124)  75 O3     2pz    (-0.3243)
               225 O5     2pz    ( 0.1426) 289 O7     2pz    (-0.1426) 310 O8     2s     ( 0.1002) 313 O8     2px    ( 0.4665)
               316 O8     2py    (-0.1983) 319 O8     2pz    ( 0.3243) 343 O9     2px    ( 0.3544)
         86   -0.3246    2.0000                                                                                                           
               100 U4     6s     ( 0.1443) 167 U4     5f1-   ( 0.1323) 222 O5     2py    ( 0.4472) 247 S6     3s     (-0.2366)
               255 S6     3py    (-0.4577) 270 S6     3d2+   ( 0.1244) 286 O7     2py    ( 0.4429) 346 O9     2py    ( 0.2779)
               349 O9     2pz    (-0.2432) 376 O10    2py    ( 0.2443) 379 O10    2pz    ( 0.2417)
         87   -0.3099    2.0000                                                                                                           
                69 O3     2px    ( 0.1063)  72 O3     2py    ( 0.1112) 108 U4     6px    ( 0.2746) 175 U4     5f1+   (-0.2492)
               313 O8     2px    ( 0.1315) 343 O9     2px    (-0.5916) 373 O10    2px    (-0.6049)
         88   -0.3072    2.0000                                                                                                           
                72 O3     2py    (-0.1214) 116 U4     6py    (-0.3312) 167 U4     5f1-   ( 0.2086) 222 O5     2py    (-0.2353)
               247 S6     3s     ( 0.1308) 255 S6     3py    ( 0.1774) 286 O7     2py    (-0.2299) 316 O8     2py    (-0.1116)
               346 O9     2py    ( 0.5168) 376 O10    2py    ( 0.5805)
         89   -0.2679    2.0000                                                                                                           
                33 S2     3s     ( 0.1181)  41 S2     3py    (-0.1947)  45 S2     3pz    (-0.1685)  72 O3     2py    ( 0.1254)
               124 U4     6pz    ( 0.4577) 171 U4     5f0    (-0.5694) 316 O8     2py    ( 0.1247) 349 O9     2pz    ( 0.5134)
               379 O10    2pz    ( 0.4578)
         90   -0.2344    2.0000                                                                                                           
                11 C1     2pz    ( 0.2867)  33 S2     3s     ( 0.2833)  41 S2     3py    (-0.4301)  45 S2     3pz    (-0.4387)
                72 O3     2py    ( 0.2656)  75 O3     2pz    ( 0.4139) 124 U4     6pz    (-0.2088) 171 U4     5f0    ( 0.2081)
               316 O8     2py    ( 0.2647) 319 O8     2pz    ( 0.4139) 346 O9     2py    (-0.1102) 349 O9     2pz    (-0.1467)
               379 O10    2pz    (-0.2238) 413 H12    1s     ( 0.1080)
         91    0.0000    1.0000                                                                                                           
               225 O5     2pz    ( 0.4738) 226 O5     3pz    ( 0.1011) 259 S6     3pz    (-1.0226) 264 S6     3d1-   (-0.1266)
               289 O7     2pz    ( 0.4738) 290 O7     3pz    ( 0.1011)
         92    0.0000    0.2500                                                                                                           
               163 U4     5f2-   ( 0.9618) 179 U4     5f2+   (-0.2581)
         93    0.0000    0.2500                                                                                                           
               159 U4     5f3-   ( 0.9210) 183 U4     5f3+   (-0.3821)
         94    0.0000    0.2500                                                                                                           
               159 U4     5f3-   ( 0.3799) 183 U4     5f3+   ( 0.9158)
         95    0.0000    0.2500                                                                                                           
               163 U4     5f2-   ( 0.2581) 179 U4     5f2+   ( 0.9616)
         96    0.1417    0.0000                                                                                                           
                 1 C1     1s     ( 0.4825)   2 C1     2s     ( 2.8595)   3 C1     3s     ( 1.4825)   4 C1     4s     ( 0.1985)
                 8 C1     2py    (-0.6828)   9 C1     3py    (-0.4094)  11 C1     2pz    ( 0.3445)  12 C1     3pz    ( 0.1986)
                18 C1     3d0    (-0.1106)  41 S2     3py    (-0.2937)  42 S2     4py    (-0.2831)  46 S2     4pz    ( 0.1139)
                73 O3     3py    (-0.1172) 100 U4     6s     ( 0.1432) 101 U4     7s     ( 0.3605) 116 U4     6py    (-0.2184)
               117 U4     7py    (-0.5076) 118 U4     8py    (-0.1173) 143 U4     6d0    (-0.1287) 155 U4     6d2+   (-0.1007)
               317 O8     3py    (-0.1100) 399 H11    1s     (-1.9004) 400 H11    2s     (-1.5955) 401 H11    3s     (-0.1132)
               402 H11    2px    ( 0.4111) 403 H11    3px    ( 0.2568) 404 H11    2py    (-0.2015) 405 H11    3py    (-0.1317)
               406 H11    2pz    ( 0.1273) 413 H12    1s     ( 0.4877) 414 H12    2s     ( 0.7468) 415 H12    3s     ( 0.2099)
               427 H13    1s     (-1.9005) 428 H13    2s     (-1.5956) 429 H13    3s     (-0.1132) 430 H13    2px    (-0.3449)
               431 H13    3px    (-0.2139) 432 H13    2py    (-0.3012) 433 H13    3py    (-0.1937) 434 H13    2pz    ( 0.1273)
      
--
 
      Von Neumann Entropy (Root  1) =  1.00000
 

      Mulliken population analysis for root number:  1
      -----------------------------------------------
 
 
++    Molecular charges:
      ------------------
 
      Mulliken charges per centre and basis function type
      ---------------------------------------------------
 
                C1      S2      O3      U4      O5      S6      O7      O8      O9      O10     H11     H12   
      1s       2.0019  2.0000  1.9990  2.0000  1.9991  2.0000  1.9991  1.9990  1.9996  1.9996  0.8695  0.7919
      2s       1.3379  1.9988  1.8676  2.0000  1.8673  1.9986  1.8673  1.8676  1.8891  1.8932 -0.0137 -0.0102
      2px      0.9964  2.0015  1.3639  2.0000  1.3687  2.0018  1.5015  1.5003  1.6524  1.6625  0.0033  0.0087
      2pz      0.8862  2.0006  1.8264  2.0000  1.7482  2.0001  1.7482  1.8264  1.4598  1.4761  0.0161  0.0125
      2py      1.0169  2.0003  1.6366  2.0000  1.6513  2.0002  1.5185  1.5003  1.6741  1.6834  0.0098 -0.0020
      3s       0.0325  1.5804  0.0019  2.0000 -0.0000  1.6852 -0.0000  0.0019  0.0082  0.0080 -0.0048 -0.0061
      3px     -0.0104  0.6640 -0.0006  2.0000  0.0009  0.6636  0.0005 -0.0008  0.0058  0.0064 -0.0078 -0.0026
      3pz     -0.0050  1.1007 -0.0142  2.0000 -0.0217  1.2979 -0.0217 -0.0142 -0.0158 -0.0170  0.0007  0.0006
      3py     -0.0142  1.1733 -0.0131  2.0000 -0.0112  1.1016 -0.0108 -0.0130  0.0045  0.0003 -0.0014 -0.0176
      4s       0.0065  0.0134  0.0058  2.0001  0.0054  0.0048  0.0054  0.0058  0.0045  0.0043  0.0000  0.0000
      3d2+     0.0112  0.1824  0.0094  2.0000  0.0095  0.1787  0.0082  0.0081  0.0005  0.0005  0.0013  0.0001
      3d1+     0.0059  0.1240  0.0072  2.0000  0.0084  0.1162  0.0064  0.0056  0.0095  0.0092  0.0016  0.0002
      3d0      0.0256  0.1649  0.0032  2.0000  0.0031  0.0461  0.0031  0.0032  0.0092  0.0091  0.0005  0.0011
      3d1-     0.0130  0.0997  0.0019  2.0000  0.0020  0.0720  0.0041  0.0034  0.0095  0.0091  0.0005  0.0010
      3d2-     0.0185  0.1668  0.0087  2.0000  0.0088  0.1629  0.0101  0.0101  0.0001  0.0001  0.0012  0.0021
      4px     -0.0010  0.0268  0.0017  2.0000  0.0016  0.0270  0.0015  0.0016  0.0009  0.0006  0.0000  0.0000
      4pz     -0.0005 -0.0041 -0.0000  2.0000 -0.0012 -0.0267 -0.0012 -0.0000  0.0006  0.0013  0.0000  0.0000
      4py     -0.0015 -0.0119  0.0001  2.0000  0.0003 -0.0035  0.0004  0.0002  0.0003 -0.0011  0.0000  0.0000
      5s       0.0000  0.0061  0.0000  2.0008  0.0000  0.0044  0.0000  0.0000  0.0000  0.0000  0.0000  0.0000
      4d2+    -0.0002  0.0008  0.0022  2.0000  0.0022 -0.0005  0.0020  0.0017  0.0001  0.0001  0.0000  0.0000
      4d1+     0.0007 -0.0000  0.0012  2.0000  0.0015 -0.0008  0.0012  0.0010  0.0016  0.0016  0.0000  0.0000
      4d0      0.0009  0.0030  0.0000  2.0000  0.0003 -0.0018  0.0003  0.0000 -0.0016 -0.0016  0.0000  0.0000
      4d1-     0.0013  0.0008  0.0004  2.0000  0.0003  0.0013  0.0006  0.0006  0.0017  0.0016  0.0000  0.0000
      4d2-    -0.0006  0.0012  0.0006  2.0000  0.0010 -0.0004  0.0012  0.0010 -0.0001 -0.0001  0.0000  0.0000
      5px      0.0000 -0.0023  0.0000  1.9999  0.0000 -0.0027  0.0000  0.0000  0.0000  0.0000  0.0000  0.0000
      5pz      0.0000 -0.0001  0.0000  1.9991  0.0000  0.0005  0.0000  0.0000  0.0000  0.0000  0.0000  0.0000
      5py      0.0000 -0.0020  0.0000  1.9999  0.0000 -0.0029  0.0000  0.0000  0.0000  0.0000  0.0000  0.0000
      6s       0.0000  0.0000  0.0000  1.9800  0.0000  0.0000  0.0000  0.0000  0.0000  0.0000  0.0000  0.0000
      4f3+     0.0004  0.0334  0.0010  2.0000  0.0010  0.0341  0.0009  0.0008 -0.0000 -0.0000  0.0000  0.0000
      4f2+     0.0004  0.0036  0.0003  2.0000  0.0003  0.0030  0.0000  0.0001  0.0001  0.0001  0.0000  0.0000
      4f1+     0.0010  0.0109  0.0004  2.0000  0.0004  0.0047  0.0003  0.0003  0.0010  0.0010  0.0000  0.0000
      4f0      0.0021  0.0254  0.0006  2.0000  0.0006  0.0130  0.0006  0.0006  0.0012  0.0011  0.0000  0.0000
      4f1-     0.0017  0.0081  0.0002  2.0000  0.0002  0.0025  0.0003  0.0003  0.0011  0.0010  0.0000  0.0000
      4f2-     0.0002  0.0212  0.0005  2.0000  0.0005  0.0200  0.0008  0.0007  0.0000  0.0000  0.0000  0.0000
      4f3-     0.0023  0.0223  0.0006  2.0000  0.0006  0.0228  0.0008  0.0008 -0.0000  0.0000  0.0000  0.0000
      5d2+     0.0000  0.0000  0.0000  1.9998  0.0000  0.0000  0.0000  0.0000  0.0000  0.0000  0.0000  0.0000
      5d1+     0.0000  0.0000  0.0000  1.9994  0.0000  0.0000  0.0000  0.0000  0.0000  0.0000  0.0000  0.0000
      5d0      0.0000  0.0000  0.0000  1.9978  0.0000  0.0000  0.0000  0.0000  0.0000  0.0000  0.0000  0.0000
      5d1-     0.0000  0.0000  0.0000  1.9994  0.0000  0.0000  0.0000  0.0000  0.0000  0.0000  0.0000  0.0000
      5d2-     0.0000  0.0000  0.0000  1.9997  0.0000  0.0000  0.0000  0.0000  0.0000  0.0000  0.0000  0.0000
      6px      0.0000  0.0000  0.0000  1.9753  0.0000  0.0000  0.0000  0.0000  0.0000  0.0000  0.0000  0.0000
      6pz      0.0000  0.0000  0.0000  1.8097  0.0000  0.0000  0.0000  0.0000  0.0000  0.0000  0.0000  0.0000
      6py      0.0000  0.0000  0.0000  1.9712  0.0000  0.0000  0.0000  0.0000  0.0000  0.0000  0.0000  0.0000
      7s       0.0000  0.0000  0.0000  0.1089  0.0000  0.0000  0.0000  0.0000  0.0000  0.0000  0.0000  0.0000
      5f3+     0.0000  0.0000  0.0000  0.0268  0.0000  0.0000  0.0000  0.0000  0.0000  0.0000  0.0000  0.0000
      5f2+     0.0000  0.0000  0.0000  0.9289  0.0000  0.0000  0.0000  0.0000  0.0000  0.0000  0.0000  0.0000
      5f1+     0.0000  0.0000  0.0000  0.2334  0.0000  0.0000  0.0000  0.0000  0.0000  0.0000  0.0000  0.0000
      5f0      0.0000  0.0000  0.0000  0.9248  0.0000  0.0000  0.0000  0.0000  0.0000  0.0000  0.0000  0.0000
      5f1-     0.0000  0.0000  0.0000  0.2342  0.0000  0.0000  0.0000  0.0000  0.0000  0.0000  0.0000  0.0000
      5f2-     0.0000  0.0000  0.0000  0.0722  0.0000  0.0000  0.0000  0.0000  0.0000  0.0000  0.0000  0.0000
      5f3-     0.0000  0.0000  0.0000  0.0095  0.0000  0.0000  0.0000  0.0000  0.0000  0.0000  0.0000  0.0000
      6d2+     0.0000  0.0000  0.0000  0.0589  0.0000  0.0000  0.0000  0.0000  0.0000  0.0000  0.0000  0.0000
      6d1+     0.0000  0.0000  0.0000  0.3528  0.0000  0.0000  0.0000  0.0000  0.0000  0.0000  0.0000  0.0000
      6d0      0.0000  0.0000  0.0000  0.3934  0.0000  0.0000  0.0000  0.0000  0.0000  0.0000  0.0000  0.0000
      6d1-     0.0000  0.0000  0.0000  0.3379  0.0000  0.0000  0.0000  0.0000  0.0000  0.0000  0.0000  0.0000
      6d2-     0.0000  0.0000  0.0000  0.1026  0.0000  0.0000  0.0000  0.0000  0.0000  0.0000  0.0000  0.0000
      7px      0.0000  0.0000  0.0000  0.0079  0.0000  0.0000  0.0000  0.0000  0.0000  0.0000  0.0000  0.0000
      7pz      0.0000  0.0000  0.0000  0.0264  0.0000  0.0000  0.0000  0.0000  0.0000  0.0000  0.0000  0.0000
      7py      0.0000  0.0000  0.0000  0.0587  0.0000  0.0000  0.0000  0.0000  0.0000  0.0000  0.0000  0.0000
      5g4+     0.0000  0.0000  0.0000  0.0023  0.0000  0.0000  0.0000  0.0000  0.0000  0.0000  0.0000  0.0000
      5g3+     0.0000  0.0000  0.0000  0.0011  0.0000  0.0000  0.0000  0.0000  0.0000  0.0000  0.0000  0.0000
      5g2+     0.0000  0.0000  0.0000  0.0007  0.0000  0.0000  0.0000  0.0000  0.0000  0.0000  0.0000  0.0000
      5g1+     0.0000  0.0000  0.0000  0.0166  0.0000  0.0000  0.0000  0.0000  0.0000  0.0000  0.0000  0.0000
      5g0      0.0000  0.0000  0.0000  0.0165  0.0000  0.0000  0.0000  0.0000  0.0000  0.0000  0.0000  0.0000
      5g1-     0.0000  0.0000  0.0000  0.0185  0.0000  0.0000  0.0000  0.0000  0.0000  0.0000  0.0000  0.0000
      5g2-     0.0000  0.0000  0.0000  0.0013  0.0000  0.0000  0.0000  0.0000  0.0000  0.0000  0.0000  0.0000
      5g3-     0.0000  0.0000  0.0000  0.0002  0.0000  0.0000  0.0000  0.0000  0.0000  0.0000  0.0000  0.0000
      5g4-     0.0000  0.0000  0.0000  0.0028  0.0000  0.0000  0.0000  0.0000  0.0000  0.0000  0.0000  0.0000
      6f3+     0.0000  0.0000  0.0000  0.0233  0.0000  0.0000  0.0000  0.0000  0.0000  0.0000  0.0000  0.0000
      6f2+     0.0000  0.0000  0.0000  0.0064  0.0000  0.0000  0.0000  0.0000  0.0000  0.0000  0.0000  0.0000
      6f1+     0.0000  0.0000  0.0000  0.0705  0.0000  0.0000  0.0000  0.0000  0.0000  0.0000  0.0000  0.0000
      6f0      0.0000  0.0000  0.0000  0.0313  0.0000  0.0000  0.0000  0.0000  0.0000  0.0000  0.0000  0.0000
      6f1-     0.0000  0.0000  0.0000  0.0794  0.0000  0.0000  0.0000  0.0000  0.0000  0.0000  0.0000  0.0000
      6f2-     0.0000  0.0000  0.0000  0.0090  0.0000  0.0000  0.0000  0.0000  0.0000  0.0000  0.0000  0.0000
      6f3-     0.0000  0.0000  0.0000  0.0127  0.0000  0.0000  0.0000  0.0000  0.0000  0.0000  0.0000  0.0000
      6g4+     0.0000  0.0000  0.0000  0.0038  0.0000  0.0000  0.0000  0.0000  0.0000  0.0000  0.0000  0.0000
      6g3+     0.0000  0.0000  0.0000  0.0023  0.0000  0.0000  0.0000  0.0000  0.0000  0.0000  0.0000  0.0000
      6g2+     0.0000  0.0000  0.0000  0.0011  0.0000  0.0000  0.0000  0.0000  0.0000  0.0000  0.0000  0.0000
      6g1+     0.0000  0.0000  0.0000  0.0123  0.0000  0.0000  0.0000  0.0000  0.0000  0.0000  0.0000  0.0000
      6g0      0.0000  0.0000  0.0000  0.0025  0.0000  0.0000  0.0000  0.0000  0.0000  0.0000  0.0000  0.0000
      6g1-     0.0000  0.0000  0.0000  0.0147  0.0000  0.0000  0.0000  0.0000  0.0000  0.0000  0.0000  0.0000
      6g2-     0.0000  0.0000  0.0000  0.0019  0.0000  0.0000  0.0000  0.0000  0.0000  0.0000  0.0000  0.0000
      6g3-     0.0000  0.0000  0.0000  0.0005  0.0000  0.0000  0.0000  0.0000  0.0000  0.0000  0.0000  0.0000
      6g4-     0.0000  0.0000  0.0000  0.0042  0.0000  0.0000  0.0000  0.0000  0.0000  0.0000  0.0000  0.0000
      6h5+     0.0000  0.0000  0.0000  0.0003  0.0000  0.0000  0.0000  0.0000  0.0000  0.0000  0.0000  0.0000
      6h4+     0.0000  0.0000  0.0000  0.0001  0.0000  0.0000  0.0000  0.0000  0.0000  0.0000  0.0000  0.0000
      6h3+     0.0000  0.0000  0.0000  0.0002  0.0000  0.0000  0.0000  0.0000  0.0000  0.0000  0.0000  0.0000
      6h2+     0.0000  0.0000  0.0000  0.0001  0.0000  0.0000  0.0000  0.0000  0.0000  0.0000  0.0000  0.0000
      6h1+     0.0000  0.0000  0.0000  0.0031  0.0000  0.0000  0.0000  0.0000  0.0000  0.0000  0.0000  0.0000
      6h0      0.0000  0.0000  0.0000  0.0026  0.0000  0.0000  0.0000  0.0000  0.0000  0.0000  0.0000  0.0000
      6h1-     0.0000  0.0000  0.0000  0.0032  0.0000  0.0000  0.0000  0.0000  0.0000  0.0000  0.0000  0.0000
      6h2-     0.0000  0.0000  0.0000  0.0001  0.0000  0.0000  0.0000  0.0000  0.0000  0.0000  0.0000  0.0000
      6h3-     0.0000  0.0000  0.0000  0.0001  0.0000  0.0000  0.0000  0.0000  0.0000  0.0000  0.0000  0.0000
      6h4-     0.0000  0.0000  0.0000  0.0001  0.0000  0.0000  0.0000  0.0000  0.0000  0.0000  0.0000  0.0000
      6h5-     0.0000  0.0000  0.0000  0.0003  0.0000  0.0000  0.0000  0.0000  0.0000  0.0000  0.0000  0.0000
      7d2+     0.0000  0.0000  0.0000  0.0033  0.0000  0.0000  0.0000  0.0000  0.0000  0.0000  0.0000  0.0000
      7d1+     0.0000  0.0000  0.0000 -0.0173  0.0000  0.0000  0.0000  0.0000  0.0000  0.0000  0.0000  0.0000
      7d0      0.0000  0.0000  0.0000  0.0900  0.0000  0.0000  0.0000  0.0000  0.0000  0.0000  0.0000  0.0000
      7d1-     0.0000  0.0000  0.0000 -0.0153  0.0000  0.0000  0.0000  0.0000  0.0000  0.0000  0.0000  0.0000
      7d2-     0.0000  0.0000  0.0000 -0.0045  0.0000  0.0000  0.0000  0.0000  0.0000  0.0000  0.0000  0.0000
      7f3+     0.0000  0.0000  0.0000  0.0026  0.0000  0.0000  0.0000  0.0000  0.0000  0.0000  0.0000  0.0000
      7f2+     0.0000  0.0000  0.0000  0.0007  0.0000  0.0000  0.0000  0.0000  0.0000  0.0000  0.0000  0.0000
      7f1+     0.0000  0.0000  0.0000  0.0025  0.0000  0.0000  0.0000  0.0000  0.0000  0.0000  0.0000  0.0000
      7f0      0.0000  0.0000  0.0000  0.0057  0.0000  0.0000  0.0000  0.0000  0.0000  0.0000  0.0000  0.0000
      7f1-     0.0000  0.0000  0.0000  0.0036  0.0000  0.0000  0.0000  0.0000  0.0000  0.0000  0.0000  0.0000
      7f2-     0.0000  0.0000  0.0000  0.0018  0.0000  0.0000  0.0000  0.0000  0.0000  0.0000  0.0000  0.0000
      7f3-     0.0000  0.0000  0.0000  0.0023  0.0000  0.0000  0.0000  0.0000  0.0000  0.0000  0.0000  0.0000
      8s       0.0000  0.0000  0.0000  0.0115  0.0000  0.0000  0.0000  0.0000  0.0000  0.0000  0.0000  0.0000
      8px      0.0000  0.0000  0.0000  0.0031  0.0000  0.0000  0.0000  0.0000  0.0000  0.0000  0.0000  0.0000
      8pz      0.0000  0.0000  0.0000  0.0017  0.0000  0.0000  0.0000  0.0000  0.0000  0.0000  0.0000  0.0000
      8py      0.0000  0.0000  0.0000  0.0091  0.0000  0.0000  0.0000  0.0000  0.0000  0.0000  0.0000  0.0000
      8d2+     0.0000  0.0000  0.0000  0.0039  0.0000  0.0000  0.0000  0.0000  0.0000  0.0000  0.0000  0.0000
      8d1+     0.0000  0.0000  0.0000  0.0028  0.0000  0.0000  0.0000  0.0000  0.0000  0.0000  0.0000  0.0000
      8d0      0.0000  0.0000  0.0000  0.0184  0.0000  0.0000  0.0000  0.0000  0.0000  0.0000  0.0000  0.0000
      8d1-     0.0000  0.0000  0.0000  0.0038  0.0000  0.0000  0.0000  0.0000  0.0000  0.0000  0.0000  0.0000
      8d2-     0.0000  0.0000  0.0000  0.0082  0.0000  0.0000  0.0000  0.0000  0.0000  0.0000  0.0000  0.0000
      9s       0.0000  0.0000  0.0000  0.0016  0.0000  0.0000  0.0000  0.0000  0.0000  0.0000  0.0000  0.0000
      9px      0.0000  0.0000  0.0000  0.0018  0.0000  0.0000  0.0000  0.0000  0.0000  0.0000  0.0000  0.0000
      9pz      0.0000  0.0000  0.0000  0.0029  0.0000  0.0000  0.0000  0.0000  0.0000  0.0000  0.0000  0.0000
      9py      0.0000  0.0000  0.0000  0.0049  0.0000  0.0000  0.0000  0.0000  0.0000  0.0000  0.0000  0.0000
      Total    6.3302 15.4135  8.7136 90.1044  8.6496 15.4236  8.6496  8.7136  8.7178  8.7507  0.8768  0.7797
 
      N-E     -0.3302  0.5865 -0.7136  1.8956 -0.6496  0.5764 -0.6496 -0.7136 -0.7178 -0.7507  0.1232  0.2203
 
                H13   
      1s       0.8695
      2s      -0.0137
      2px      0.0056
      2pz      0.0161
      2py      0.0076
      3s      -0.0048
      3px     -0.0064
      3pz      0.0007
[...]
     MLTPL  2   4 (HERMSING)     MLTPL  2   5 (HERMSING)     MLTPL  2   6 (HERMSING)
     VELOCITY   1 (ANTISING)     VELOCITY   2 (ANTISING)     VELOCITY   3 (ANTISING)
     ANGMOM     1 (ANTISING)     ANGMOM     2 (ANTISING)     ANGMOM     3 (ANTISING)
     AMFI       1 (ANTITRIP)     AMFI       2 (ANTITRIP)     AMFI       3 (ANTITRIP)
 
       EIGENSTATES OF A SPIN-FREE HAMILTONIAN WILL BE COMPUTED BASED ON:
 
  a Hamiltonian matrix assumed to be diagonal with energies read from the wavefu
 nction file(s).
  SO coupling elements will be added.
       EIGENSTATES OF SPIN-ORBIT HAMILTONIAN WILL BE COMPUTED
        MATRIX ELEMENTS OVER SPIN EIGENSTATES FOR:
     MLTPL  1   1 (HERMSING)     MLTPL  1   2 (HERMSING)     MLTPL  1   3 (HERMSING)
     MLTPL  2   1 (HERMSING)     MLTPL  2   2 (HERMSING)     MLTPL  2   3 (HERMSING)
     MLTPL  2   4 (HERMSING)     MLTPL  2   5 (HERMSING)     MLTPL  2   6 (HERMSING)
     VELOCITY   1 (ANTISING)     VELOCITY   2 (ANTISING)     VELOCITY   3 (ANTISING)
     ANGMOM     1 (ANTISING)     ANGMOM     2 (ANTISING)     ANGMOM     3 (ANTISING)
 
  Nr of states:                     8
 
   State:        1   2   3   4   5   6   7   8
  JobIph:        1   1   1   1   2   2   2   2
 Root nr:        1   2   3   4   1   2   3   4
 
  HAMILTONIAN MATRIX FOR THE ORIGINAL STATES:
 
  Diagonal, with energies
 -29239.20006027 -29239.19743916 -29239.19678748 -29239.18917550 -29239.20009357
 -29239.19732182 -29239.19653773 -29239.18895407
 
      OVERLAP MATRIX FOR THE ORIGINAL STATES:
 
  Diagonal, with elements
      1.00000000      1.00000000      1.00000000      1.00000000      1.00000000
      1.00000000      1.00000000      1.00000000
 
::    RASSI State    1     Total energy: -29239.20006027
::    RASSI State    2     Total energy: -29239.19743916
::    RASSI State    3     Total energy: -29239.19678748
::    RASSI State    4     Total energy: -29239.18917550
::    RASSI State    5     Total energy: -29239.20009357
::    RASSI State    6     Total energy: -29239.19732182
::    RASSI State    7     Total energy: -29239.19653773
::    RASSI State    8     Total energy: -29239.18895407
 
 
 
      ****************************************************************************************************
      *                                                                                                  *
      *                                         Spin-free section                                        *
      *                                                                                                  *
      *                 Note: index according to input order, order according to energy.                 *
      *                                                                                                  *
      ****************************************************************************************************
 
 
 
  SPIN-FREE ENERGIES:
  (Shifted by EVAC (a.u.) =     -29239.2000935667)
 
 SF State       Relative EVAC(au)   Rel lowest level(eV)    D:o, cm**(-1)
 
     5             0.0000000000        0.0000000000              0.0000
     1             0.0000332933        0.0009059556              7.3070
     2             0.0026544086        0.0722301366            582.5753
     6             0.0027717515        0.0754232011            608.3291
     3             0.0033060895        0.0899632773            725.6028
     7             0.0035558374        0.0967592653            780.4161
     4             0.0109180702        0.2970958233           2396.2394
     8             0.0111394959        0.3031211224           2444.8368
 
++ Dipole transition strengths (spin-free states):
   -----------------------------------------------
     for osc. strength at least  1.00000000E-05
 
  ( Max oscillator strength is only   1.485065527876642E-007 )
--
 
++ Velocity transition strengths (spin-free states):
   -------------------------------------------------
     for osc. strength at least  1.00000000E-05
 
      From   To        Osc. strength     Einstein coefficients Ax, Ay, Az (sec-1)    Total A (sec-1)
     -----------------------------------------------------------------------------------------------
         2    3       7.76931626E-05  1.04202328E+00  1.81141587E-02  1.31254562E-11  1.06013743E+00
         2    4       5.40462053E-05  1.16555660E+02  2.02657546E+00  3.87805561E-09  1.18582235E+02
         6    7       6.77479572E-05  1.31537023E+00  2.28662694E-02  9.75202345E-14  1.33823650E+00
         6    8       3.20083539E-05  7.07785589E+01  1.23089543E+00  2.96847012E-10  7.20094543E+01
         3    4       2.34776476E-05  2.20998405E-01  1.27131077E+01  3.07737307E+01  4.37078368E+01
         7    8       1.83921669E-05  2.22283295E-01  1.27856748E+01  2.09780221E+01  3.39859803E+01
     -----------------------------------------------------------------------------------------------
--
 
 --------------------------------------------------
 
 A comparison between the dipole oscillator strengths in 
 length and velocity gauge will be performed
 
 All dipole oscillator differences above the tolerance of 
  0.100000000000000       will be printed 
 
 Due to basis set deficiency these oscillator may be problematic 
 
 The tolerance is defined as ABS(1-O_l/O_v) 
 O_l : dipole oscillator strength in length gauge
 O_p : dipole oscillator strength in velocity gauge
 
 --------------------------------------------------
 
  Problematic transitions have been found
 
      From   To      Difference (%)  Osc. st. (len.) Osc. st. (vel.)
      --------------------------------------------------------------
 
         2    3      --------------- below threshold  7.76931626E-05
         2    4      --------------- below threshold  5.40462053E-05
         6    7      --------------- below threshold  6.77479572E-05
         6    8      --------------- below threshold  3.20083539E-05
         3    4      --------------- below threshold  2.34776476E-05
         7    8      --------------- below threshold  1.83921669E-05
      --------------------------------------------------------------
 
 Number of problematic transitions =                      6
 
 Electric-Dipole - Electric-Octupole not included
 Electric-Dipole - Magnetic-Quadrupole not included
 
 
 
      ****************************************************************************************************
      *                                                                                                  *
      *                                         Spin-orbit section                                       *
      *                                                                                                  *
      ****************************************************************************************************
 
 
 Complex SO-Hamiltonian matrix elements over
 spin components of spin-free eigenstates (SFS):
 (In cm-1. Print threshold:   1000.000 cm-1)
 ----------------------------------------------------------------------
 
  I1  S1  MS1    I2  S2  MS2    Real part    Imag part      Absolute
     7  1.0 -1.0    1  1.0 -1.0         0.000     -1981.864      1981.864
     9  1.0  1.0    3  1.0  1.0         0.000      1981.864      1981.864
    10  1.0 -1.0    4  1.0 -1.0         0.000      2992.989      2992.989
    12  1.0  1.0    6  1.0  1.0         0.000     -2992.989      2992.989
    13  0.0  0.0    8  1.0  0.0         0.000      1982.133      1982.133
    14  0.0  0.0   11  1.0  0.0         0.000     -2993.097      2993.097
    15  0.0  0.0    2  1.0  0.0         0.000     -1982.312      1982.312
    16  0.0  0.0    5  1.0  0.0         0.000      2993.085      2993.085
 ----------------------------------------------------------------------
 
       Total energies including SO-coupling:
::    SO-RASSI State    1     Total energy: -29239.21305924
::    SO-RASSI State    2     Total energy: -29239.21304909
::    SO-RASSI State    3     Total energy: -29239.21300108
::    SO-RASSI State    4     Total energy: -29239.21299170
::    SO-RASSI State    5     Total energy: -29239.20732946
::    SO-RASSI State    6     Total energy: -29239.20730857
::    SO-RASSI State    7     Total energy: -29239.20730790
::    SO-RASSI State    8     Total energy: -29239.20718698
::    SO-RASSI State    9     Total energy: -29239.18449625
::    SO-RASSI State   10     Total energy: -29239.18448646
::    SO-RASSI State   11     Total energy: -29239.18445825
::    SO-RASSI State   12     Total energy: -29239.18437515
::    SO-RASSI State   13     Total energy: -29239.17861061
::    SO-RASSI State   14     Total energy: -29239.17860135
::    SO-RASSI State   15     Total energy: -29239.17857798
::    SO-RASSI State   16     Total energy: -29239.17845432
 
 
   Eigenvalues of complex Hamiltonian:
   -----------------------------------
 
  (Shifted by EVAC (a.u.) =    -29239.200093567)
 
          Relative EVac(au)    Rel lowest level(eV)    D:o, cm**(-1)
 
     1       -0.0129656687          0.0000000000              0.0000
     2       -0.0129555279          0.0002759436              2.2256
     3       -0.0129075106          0.0015825615             12.7642
     4       -0.0128981359          0.0018376595             14.8217
     5       -0.0072358938          0.1559151163           1257.5402
     6       -0.0072150069          0.1564834790           1262.1244
     7       -0.0072143332          0.1565018086           1262.2722
     8       -0.0070934117          0.1597922509           1288.8114
     9        0.0155973214          0.7772385502           6268.8517
    10        0.0156071022          0.7775046992           6270.9984
    11        0.0156353188          0.7782725110           6277.1912
    12        0.0157184188          0.7805337783           6295.4295
    13        0.0214829525          0.9373947278           7560.5984
    14        0.0214922160          0.9376468003           7562.6315
    15        0.0215155860          0.9382827323           7567.7607
    16        0.0216392425          0.9416475972           7594.9001
 
 
 Weights of the five most important spin-orbit-free states for each spin-orbit s
 tate.
 
 SO State  Total energy (au)           Spin-free states, spin, and weights
 -------------------------------------------------------------------------------
 ------------------------
    1        -0.012966       2 1.0  0.4765    4 1.0  0.2959    5 0.0  0.2039    3 1.0  0.0233    6 0.0  0.0002
    2        -0.012956       2 1.0  0.4766    4 1.0  0.2958    1 1.0  0.2051    7 0.0  0.0221    3 1.0  0.0004
    3        -0.012908       6 0.0  0.4746    4 1.0  0.2969    1 1.0  0.2050    3 1.0  0.0233    2 1.0  0.0002
    4        -0.012898       2 1.0  0.4784    8 0.0  0.2932    1 1.0  0.2051    3 1.0  0.0228    7 0.0  0.0004
    5        -0.007236       3 1.0  0.5160    5 0.0  0.4361    2 1.0  0.0348    4 1.0  0.0126    6 0.0  0.0004
    6        -0.007215       3 1.0  0.5170    1 1.0  0.4348    2 1.0  0.0356    8 0.0  0.0123    4 1.0  0.0003
    7        -0.007214       3 1.0  0.5172    1 1.0  0.4347    6 0.0  0.0349    4 1.0  0.0127    2 1.0  0.0004
    8        -0.007093       7 0.0  0.5120    1 1.0  0.4383    2 1.0  0.0366    4 1.0  0.0129    8 0.0  0.0003
    9         0.015597       3 1.0  0.4342    5 0.0  0.3262    2 1.0  0.2368    4 1.0  0.0018    1 1.0  0.0010
   10         0.015607       3 1.0  0.4331    1 1.0  0.3272    2 1.0  0.2379    8 0.0  0.0016    4 1.0  0.0001
   11         0.015635       3 1.0  0.4338    1 1.0  0.3272    6 0.0  0.2357    4 1.0  0.0022    5 0.0  0.0010
   12         0.015718       7 0.0  0.4375    1 1.0  0.3231    2 1.0  0.2380    4 1.0  0.0013    8 0.0  0.0001
   13         0.021483       4 1.0  0.6897    2 1.0  0.2512    5 0.0  0.0321    3 1.0  0.0266    1 1.0  0.0005
   14         0.021492       4 1.0  0.6896    2 1.0  0.2488    1 1.0  0.0335    7 0.0  0.0279    3 1.0  0.0001
   15         0.021516       4 1.0  0.6882    6 0.0  0.2541    1 1.0  0.0314    3 1.0  0.0258    5 0.0  0.0005
   16         0.021639       8 0.0  0.6925    2 1.0  0.2481    1 1.0  0.0328    3 1.0  0.0265    7 0.0  0.0001
 -------------------------------------------------------------------------------
 ------------------------
 
 
      ****************************************************************************************************
      *                                                                                                  *
      *                                    Special properties section                                    *
      *                                                                                                  *
      ****************************************************************************************************
 
 
++ Velocity transition strengths (SO states):
   ------------------------------------------
    for osc. strength at least   1.000000000000000E-005
 
         To  From     Osc. strength   Einstein coefficients Ax, Ay, Az (sec-1)  
      Total A (sec-1)  
         -----------------------------------------------------------------------
 --------------------
         1    2       2.48959523E-02  8.08500696E-02  1.40780438E-03  1.74063683E-09  8.22578757E-02
         1    3       1.73207958E-05  1.85098379E-05  5.73212768E-04  1.29061310E-03  1.88233571E-03
         2    4       2.18633183E-05  2.07441949E-05  5.96177001E-04  1.69689151E-03  2.31381271E-03
         3    4       1.99733806E-02  5.54339433E-02  9.65377228E-04  1.06644733E-09  5.63993216E-02
         5    6       2.93642962E-04  4.04816372E-03  6.78138541E-05  5.53051540E-08  4.11603288E-03
         5    7       5.38787779E-04  4.01526534E-05  2.35777370E-03  5.64930802E-03  8.04723438E-03
         6    7       1.14667832E-02  1.64255303E-04  2.91338553E-06  7.17083801E-10  1.67169406E-04
         6    8       8.89440991E-05  2.21208601E-04  1.35420025E-02  2.84899137E-02  4.22531248E-02
         7    8       4.99819033E-05  2.30947965E-02  3.86608928E-04  2.86028910E-07  2.34816914E-02
         9   10       2.28029292E-03  6.88908702E-03  1.19789852E-04  7.56916924E-12  7.00887688E-03
         9   11       1.15843313E-04  2.76480094E-05  1.60356302E-03  3.74265929E-03  5.37387032E-03
         9   12       2.27033374E-05  1.05110944E-02  1.86041285E-04  2.97724264E-08  1.06971655E-02
         9   14       1.05504145E-05  1.15804470E+01  1.99150345E-01  1.42650666E-05  1.17796116E+01
         9   15       1.19665981E-05  6.56901027E-02  3.90202237E+00  9.49922461E+00  1.34669371E+01
        10   11       1.34445369E-05  3.38335346E-04  5.58150721E-06  7.91971625E-09  3.43924773E-04
        10   12       4.32351806E-05  9.11706091E-05  5.11868037E-03  1.20035445E-02  1.72133954E-02
        10   14       1.19534283E-05  6.55272289E-02  3.90414322E+00  9.33216503E+00  1.33018355E+01
        10   15       1.03446228E-05  1.14069286E+01  1.96213517E-01  1.37559558E-05  1.16031559E+01
        11   12       2.58071292E-04  5.62813405E-02  9.78684944E-04  6.96480914E-11  5.72600256E-02
        11   13       1.19445661E-05  6.61015974E-02  3.85247631E+00  9.20463173E+00  1.31232096E+01
        12   13       1.24910770E-05  1.31094503E+01  2.26916950E-01  2.03115673E-06  1.33363692E+01
        13   14       3.31410186E-02  8.98117825E-02  1.56269134E-03  2.97771333E-10  9.13744741E-02
        13   15       6.21423585E-04  1.12861890E-04  6.20319849E-03  1.49470174E-02  2.12630777E-02
        13   16       3.53889422E-05  2.72994877E-02  4.74595227E-04  2.43607709E-11  2.77740830E-02
        14   15       2.53787460E-04  4.37738664E-03  7.60939565E-05  3.16054740E-12  4.45348060E-03
        14   16       1.29072216E-04  5.31795276E-04  2.91467500E-02  5.99680560E-02  8.96466012E-02
        15   16       2.00424082E-03  9.67831373E-01  1.68443151E-02  8.04424687E-09  9.84675696E-01
         -----------------------------------------------------------------------
 --------------------
--
 
 
 --------------------------------------------------
 
 A comparison between the dipole oscillator strengths in 
 length and velocity gauge will be performed
 
 All dipole oscillator differences above the tolerance of 
  0.100000000000000       will be printed 
 
 Due to basis set deficiency these oscillator may be problematic 
 
 The tolerance is defined as ABS(1-O_l/O_v) 
 O_l : dipole oscillator strength in length gauge
 O_p : dipole oscillator strength in velocity gauge
 
 --------------------------------------------------
 
  Problematic transitions have been found
      From   To      Difference (%)  Osc. st. (len.) Osc. st. (vel.)
      --------------------------------------------------------------
 
         1    2      --------------- below threshold  2.48959523E-02
         1    3      --------------- below threshold  1.73207958E-05
         2    4      --------------- below threshold  2.18633183E-05
         3    4      --------------- below threshold  1.99733806E-02
         5    6      --------------- below threshold  2.93642962E-04
         5    7      --------------- below threshold  5.38787779E-04
         6    7      --------------- below threshold  1.14667832E-02
         6    8      --------------- below threshold  8.89440991E-05
         7    8      --------------- below threshold  4.99819033E-05
         9   10      --------------- below threshold  2.28029292E-03
         9   11      --------------- below threshold  1.15843313E-04
         9   12      --------------- below threshold  2.27033374E-05
         9   14      --------------- below threshold  1.05504145E-05
         9   15      --------------- below threshold  1.19665981E-05
        10   11      --------------- below threshold  1.34445369E-05
        10   12      --------------- below threshold  4.32351806E-05
        10   14      --------------- below threshold  1.19534283E-05
        10   15      --------------- below threshold  1.03446228E-05
        11   12      --------------- below threshold  2.58071292E-04
        11   13      --------------- below threshold  1.19445661E-05
        12   13      --------------- below threshold  1.24910770E-05
        13   14      --------------- below threshold  3.31410186E-02
        13   15      --------------- below threshold  6.21423585E-04
        13   16      --------------- below threshold  3.53889422E-05
        14   15      --------------- below threshold  2.53787460E-04
        14   16      --------------- below threshold  1.29072216E-04
        15   16      --------------- below threshold  2.00424082E-03
      --------------------------------------------------------------
 
 Number of problematic transitions =                     27
 
 Electric-Dipole - Electric-Octupole not included
 Electric-Dipole - Magnetic-Quadrupole not included
 ###############################################################################
 ###############################################################################
 ###                                                                         ###
 ###                                                                         ###
 ###    RunFile label nBas                                                   ###
 ###    was used     1336 times                                              ###
 ###                                                                         ###
 ###                                                                         ###
 ###############################################################################
 ###############################################################################
--- Stop Module: rassi at Fri Dec  6 18:48:07 2019 /rc=_RC_ALL_IS_WELL_ ---
*** files: UO2_CH3SO2_SO2-m1-triplet.rassi-SO-casscf-xmscaspt2.VTZP.rassi.h5 xmldump
    saved to directory /home/vallet/John-sulfinate/U-complexes/UO2_CH3SO2_SO2-m1/triplet-geom/optg-freq-pbe0/SO-XMS
--- Module rassi spent 3 seconds ---

    Timing: Wall=13163.60 User=75586.43 System=6445.66
