7
Energy = -588.2785215898
C     0.4563908   -0.8082214    0.0000000 
H     0.2128308   -1.8769436    0.0000000 
H     1.0772908   -0.5950375    0.8894573 
H     1.0772908   -0.5950375   -0.8894573 
O    -0.7260544   -0.0890595    0.0000000 
S    -0.3588610    1.6481105    0.0000000 
O    -1.7388878    2.3161889    0.0000000 
