
OPTIMIZATION CYCLE 9
Mon Jan 28 17:30:58 CET 2019
tmpdir in control file set to "/state/partition1/vallet/537224.phlam-s-sakura".
This directory must exist and be writable by the master process (slave1).
STARTING rdgrad ON 4 PROCESSORS!
RUNNING PROGRAM /home/pcmt/COSMOlogic/turbomole/7.3/TURBOMOLE/bin/em64t-unknown-linux-gnu_smp/rdgrad_mpi.
/home/pcmt/COSMOlogic/turbomole/7.3/TURBOMOLE/mpirun_scripts/PMPI/bin/mpirun -machinefile ./hostlist_from_pbs -e OMP_NUM_THREADS=4 -e TURBODIR=/home/pcmt/COSMOlogic/turbomole/7.3/TURBOMOLE -e OMP_STACK_SIZE=256M -e LD_LIBRARY_PATH=/home/pcmt/COSMOlogic/turbomole/7.3/TURBOMOLE/libso/em64t-unknown-linux-gnu_smp:/home/pcmt/COSMOlogic/turbomole/7.3/TURBOMOLE/libso/sysname:/home/pcmt/Chemcraft/Chemcraft/lib:.:/usr/lib:/usr/lib64:/usr/local/lib64:/usr/local/lib:/share/apps/lib64:/share/apps/lib:/opt/python/lib:/share/apps/lib/python2.5:/share/apps/lib /home/pcmt/COSMOlogic/turbomole/7.3/TURBOMOLE/bin/em64t-unknown-linux-gnu_smp/rdgrad_mpi
 u-5-4.local ( 1 ) 
 u-5-4.local ( 2 ) 
 u-5-4.local ( 3 ) 
 this is node-proc. number 0 running on node u-5-4.local
 the total number of node-proc. spawned is   4
 GA version: using    4 (total) on    1 nhosts.
 operating system is UNIX !

 rdgrad (u-5-4.local) : TURBOMOLE V7.3 ( 22135 ) 9 Jul 2018 at 10:31:25
 Copyright (C) 2018 TURBOMOLE GmbH, Karlsruhe


    2019-01-28 17:31:08.578 

 ********** GlobalArray OPTION SETTINGS : **********
 *****************************************************

 gradient run will be profiled !



                                 r d g r a d

                          gradient for ridft program 

                        by K.Eichkorn, O.Treutler, H.Oehm, 
                             M.Haeser and R.Ahlrichs
                  (Chemical Physics Letters 242 (1995) 652-660)
                    parallel version: M.v.Arnim  &  R.Ahlrichs
                            quantum chemistry group
                             university  karlsruhe
                                   germany




                          References             
                                                 
          Density Functional:                              
              O. Treutler and R. Ahlrichs                      
              Efficient Molecular Numerical Integration Schemes
              J. chem. Phys. 102: 346 (1995)                   
          Parallel Version:                                
              Performance of parallel TURBOMOLE for Density    
              Functional Calculations                          
              M. v.Arnim and R. Ahlrichs                      
              J. comp. Chem. 19: 1746 (1998)                   
          RI-J Method:                                     
              Auxiliary Basis Sets to approximate Coulomb      
              Potentials                                       
              Chem. Phys. Lett. 240: 283 (1995)                
              K. Eichkorn, O. Treutler, H. Oehm, M. Haeser     
              and R. Ahlrichs                                  
              Chem. Phys. Lett. 242: 652 (1995)                
                                                           
              Auxiliary Basis Sets for Main Row Atoms and their
              Use to approximate Coulomb Potentials            
              K. Eichkorn, F. Weigend, O. Treutler and         
              R. Ahlrichs                                      
              Theo. Chem. Acc. 97: 119 (1997)                  
          Relativistic Two-component ECP formalism             
              Efficient two-component self-consistent field    
              procedures and gradients: implementation in      
              TURBOMOLE and application to Au20-               
              A. Baldes and F. Weigend                         
              Mol. Phys. 111: 2617 (2013)                      
          Relativistic all-electron 2c calculations            
              Efficient implementation of one- and two-component
              analytical energy gradients in exact two-component
              theory                                           
              Y. J. Franzke, N. Middendorf and F. Weigend      
              J. Chem. Phys. 148: 104110 (2018)                
                                         



 integral neglect threshold       :  0.11E-09
 integral storage threshold THIZE :  0.10E-04
 integral storage threshold THIME :         5

 PBE0 hybrid functional
 exchange:    3/4 (LDA+PBE) + 1/4 HF
 correlation: LDA (PW) + PBE
 A Hybrid-DFT calculation using the RI-J approximation will be carried out.
  
  
 AUXILIARY BASIS SET information:

 symmetry group of the molecule :   cs

 the group has the following generators :
   c1(z)
   mirror plane sigma(xy)

    2 symmetry operations found

 there are 2 real representations :   a'   a"  

 maximum number of shells which are related by symmetry :  2


    mo occupation :
   irrep   mo's   occupied
    a'     162       16
    a"      95        5
 
 number of basis functions   :                    257
 number of occupied orbitals :                     21
 

 number of off-diagonal lagrangians expected :  0

 biggest AO integral is expected to be     9.679779311
  
           ------------------
           density functional
           ------------------
 PBE0 hybrid functional
 exchange:    3/4 (LDA+PBE) + 1/4 HF
 correlation: LDA (PW) + PBE

 iterations will be done with small grid
  
 spherical integration : Lebedev's spherical grid
 spherical gridsize    :                     4
    i.e. gridpoints    :                   434
 value for diffuse not defined
 radial integration    : Chebyshev 2nd kind (scaling 3)
 radial gridsize       :                     6
 integration cells     :                     6
 partition function    : becke
 partition sharpness   :                     3
  
  
           ------------------------
             RDGRAD - INFORMATION
           ------------------------
  
 Threshold for integral neglect (rithr1): 1E-10
 Threshold for integral neglect (rithr2): 1E-10
     
 ****************************************
 Local memory allocated for RDGRAD: 1 MiB
 ****************************************
                                            
 PQ decomposition by parallel Cholesky:                   149  basis functions.

 nuclear repulsion energy  :   167.017491899    

  MOs are in ASCII format !


 reading orbital data $scfmo  from file mos
 orbital characterization : scfconv=6
 WARNING: deviation from orthonormality  4.558154409473048E-009 
 is greater than 1.d-10!

    ----------------------------------------
     S+T+V CONTRIBUTIONS TO ENERGY GRADIENT 
    ----------------------------------------

 1e-integral 1st. derivatives will be neglected if expon. factor < 0.223919E-12


 setting up bound for integral derivative estimation

 increment for numerical differentiation : 0.00050000

 biggest AO integral is expected to be     9.679779311
 biggest cartesian 1st derivative AO integral is expected to be    25.065200689

 biggest 1-particle AO density matrix element is expected to be    2.0048421657

 setting up bound for integral derivative estimation

 increment for numerical differentiation : 0.00050000

 biggest AO integral is expected to be     9.679779311
 biggest cartesian 1st derivative AO integral is expected to be    25.065200689

 2e-integral 1st. derivatives will be neglected if expon. factor < 0.100000E-06
 outer boundary for 2e-integral derivative neglection is 0.207328E-08


 performing derivative 2e integral batch statistics 

 #        istart  iend      jstart  jend  cost
     1         1    54         1     2          491797544.00
     2        54    63         3     4          491112252.00
     3        63    68         5    67          491663532.00
     4        68    72        68    25          492827796.00
     5        72    74        26    47          351370404.00
     6        74    76        48    64          351676068.00
     7        76    78        65    32          351062472.00
     8        78    79        33    27          351247390.00
     9        79    79        28    71          252064000.00
    10        79    80        72    47          259983270.00
    11        80    80        48    80          256446210.00
    12        81    81         1    52          271321540.00
    13        81    81        53    78          188874480.00
    14        81    82        79    34          189970810.00
    15        82    82        35    64          179553780.00
    16        82    83        65     2          185884380.00
    17        83    83         3    32          129059110.00
    18        83    83        33    52          134054300.00
    19        83    83        53    71          136406610.00
    20        83    83        72    83          133890860.00
    21        84    84         1    25          104838050.00
    22        84    84        26    51          100341120.00
    23        84    84        52    68           98325030.00
    24        84    84        69    81          100276160.00
    25        84    85        82     2           66695960.00
    26        85    85         3    23           65675410.00
    27        85    85        24    30           69453010.00
    28        85    85        31    51           97694850.00
    29        85    85        52    55           49603950.00
    30        85    85        56    64           52225440.00
    31        85    85        65    72           50476980.00
    32        85    85        73    78           48939740.00
    33        85    85        79    81           48535200.00
    34        85    85        82    83           33600000.00
    36        85    85        84    83           26660700.00
 totalcost check=   6703608408.00000      ntasks=                    35

 cpu time for derivative 2e integral statistics :      0.08 sec

 
   end of statistics output by subroutine kunz .
                     ***
 
          Overall gridpoints after grid construction =         38608

 Integrated ground state density     :   41.99968044439057    


          ------------------------------------------------
           cartesian gradient of the energy (hartree/bohr)
          ------------------------------------------------

  ATOM      1 c           2 h           3 h           4 h           5 o 
dE/dx -0.6618952D-04 -0.7169867D-05  0.2779271D-04  0.2779271D-04  0.1173830D-04
dE/dy -0.1591033D-04 -0.4712375D-05  0.1993883D-04  0.1993883D-04  0.4379987D-04
dE/dz  0.0000000D+00  0.0000000D+00  0.8506857D-05 -0.8506857D-05  0.0000000D+00

  ATOM      6 s           7 o 
dE/dx -0.3394510D-04 -0.2353601D-04
dE/dy -0.5210127D-04 -0.3810157D-04
dE/dz  0.0000000D+00  0.0000000D+00
 
 resulting FORCE  (fx,fy,fz) = (-.635D-04,-.271D-04,0.000D+00)
 resulting MOMENT (mx,my,mz) = (0.000D+00,0.000D+00,0.313D-03)


 exx =       0.000137 eyy =      -0.000340 ezz =       0.000029
 eyz =       0.000000 exz =       0.000000 exy =       0.000010


 **********************************************************************
  |maximum component of gradient| : 0.66189524E-04  (atom  1 c )       
   gradient norm                  : 0.12296838E-03
 **********************************************************************
   ***  cartesian gradients written onto <gradient>  ***


     --- calculation of the energy gradient finished ---


    rdgrad.all profiling
  --------------------------------------------------------------------
             module   cpu total (s)       %  wall total (s)       %

          rdgrad.all            10.2  100.00            10.1  100.00
        rdgrad.input             0.5    4.69             0.6    6.19
           bound.etc             0.4    4.20             0.4    4.24
            dft.prep             0.4    3.57             0.4    3.59
       before.oneder             0.0    0.05             0.0    0.03
          before.rik             0.0    0.00             0.0    0.00
        input.oneint             0.0    0.03             0.0    0.02
       input.moinput             0.0    0.41             0.0    0.21
      moinput.orttst             0.0    0.02             0.0    0.01
              oneder             0.0    0.37             0.0    0.19
       rdgrad.twoder             1.0    9.60             0.8    7.95
            lpdrc1..             0.1    1.36             0.1    0.68
         fmmlpdrc1..             0.0    0.00             0.0    0.00
       twoder-rest..             0.3    2.62             0.2    1.62
        DRI-J.near..             0.6    5.59             0.6    5.64
      rdgrad.nachtwo             7.6   74.61             7.6   75.10
      rdgrad.grdfinp             0.3    2.46             0.3    2.49
           dft total             0.2    2.45             0.2    2.47
    xc contributions             0.2    2.45             0.2    2.47
         rdgrad.rest             0.0    0.01             0.0    0.00
 


    ------------------------------------------------------------------------
         total  cpu-time :  10.24 seconds
         total wall-time :  10.24 seconds
    ------------------------------------------------------------------------

   ****  rdgrad : all done  ****


    2019-01-28 17:31:18.716 

fine, there is no data group "$actual step"
next step = relax

 statpt (u-5-4.local) : TURBOMOLE V7.3 ( 22118 ) 1 Jul 2018 at 20:38:15
 Copyright (C) 2018 TURBOMOLE GmbH, Karlsruhe


    2019-01-28 17:31:20.292 



                           this is S T A T P T   


                     hessian and coordinate update for
                          stationary point search 

                     by barbara unterreiner, marek sierka,
                           and reinhart ahlrichs

                          quantum chemistry group
                          universitaet  karlsruhe
                                  germany




              +--------------------------------------------------+
              | Atomic coordinate, charge and isotop information |
              +--------------------------------------------------+

                    atomic coordinates            atom    charge  isotop
          0.86242612   -1.52723002    0.00000000    c      6.000     0
          0.40166791   -3.54670381    0.00000000    h      1.000     0
          2.03595844   -1.12446424    1.68078314    h      1.000     0
          2.03595844   -1.12446424   -1.68078314    h      1.000     0
         -1.37185113   -0.16787354    0.00000000    o      8.000     0
         -0.67804741    3.11429829    0.00000000    s     16.000     0
         -3.28611238    4.37643756    0.00000000    o      8.000     0
 
       center of nuclear mass  :   -1.02907417    1.80795975    0.00000000
       center of nuclear charge:   -0.93815427    1.67166518    0.00000000
  Keyword $statpt not found - using default options
 
        ***************  Stationary point options ******************
        ************************************************************
           Maximum allowed trust radius:           3.000000E-01
           Minimum allowed trust radius:           1.000000E-03
           Initial trust radius:                   1.500000E-01
           GDIIS used if gradient norm <           1.000000E-02
           Number of previous steps for GDIIS:       5
           Hessian update method:                  BFGS
                        *** Convergence criteria ***                
           Threshold for energy change:            1.000000E-06
           Threshold for max displacement element: 1.000000E-03
           Threshold for max gradient element :    1.000000E-04
           Threshold for RMS of displacement:      5.000000E-04
           Threshold for RMS of gradient:          5.000000E-04
        ************************************************************
 

 keyword $statp missing in file <control>

  Keyword $statpt not found - using default options
  actual coordinates :
         0.862426122535        -1.527230020496         0.000000000000
         0.401667908541        -3.546703809304         0.000000000000
         2.035958442378        -1.124464239235         1.680783143442
         2.035958442378        -1.124464239235        -1.680783143442
        -1.371851125204        -0.167873543838         0.000000000000
        -0.678047409006         3.114298289627         0.000000000000
        -3.286112381622         4.376437562480         0.000000000000
  actual gradients :
        -0.000066189524        -0.000015910326         0.000000000000
        -0.000007169867        -0.000004712375         0.000000000000
         0.000027792712         0.000019938826         0.000008506857
         0.000027792712         0.000019938826        -0.000008506857
         0.000011738296         0.000043799872         0.000000000000
        -0.000033945097        -0.000052101274         0.000000000000
        -0.000023536012        -0.000038101567         0.000000000000
     Number of symmetry restricted degrees of freedom:    13
     Constituted by:     2 translational degrees of freedom
                         1 rotational degrees of freedom
                      10 internal degrees of freedom

  *************************************************************************
   ATOM                      CARTESIAN COORDINATES
    1 c       0.86242612253452     -1.52723002049550      0.00000000000000
    2 h       0.40166790854087     -3.54670380930390      0.00000000000000
    3 h       2.03595844237784     -1.12446423923483      1.68078314344157
    4 h       2.03595844237784     -1.12446423923483     -1.68078314344157
    5 o      -1.37185112520381     -0.16787354383762      0.00000000000000
    6 s      -0.67804740900613      3.11429828962706      0.00000000000000
    7 o      -3.28611238162159      4.37643756247962      0.00000000000000
  *************************************************************************
   ATOM                      CARTESIAN GRADIENTS  
    1 c      -0.00006618952352     -0.00001591032605      0.00000000000000
    2 h      -0.00000716986681     -0.00000471237491      0.00000000000000
    3 h       0.00002779271205      0.00001993882566      0.00000850685661
    4 h       0.00002779271205      0.00001993882566     -0.00000850685661
    5 o       0.00001173829638      0.00004379987238      0.00000000000000
    6 s      -0.00003394509672     -0.00005210127425      0.00000000000000
    7 o      -0.00002353601231     -0.00003810156706      0.00000000000000
  *************************************************************************

  norm of actual CARTESIAN gradient:  1.22968E-04
  norm of actual INTERNAL  gradient:  1.01693E-04

  ENERGY =    -588.2785214670 a.u.; # of cycle =    9

  Approximate Hessian read from $hessapprox data section

  Hessian updated according to BFGS formula
  Number of zero Hessian eigenvalues:   0
  Number of structures for GDIIS interpolation:    5
  GDIIS step:     0.000688

  Transforming internal coordinate displacements to Cartesian space
      Iteration   1 residual norm     6.878379E-04
      Iteration   2 residual norm     8.088597E-08
      Iteration   3 residual norm     1.024257E-15
      Transformation converged
      Residual norm:    1.024257E-15 after    3 iterations

      ****************************************************************** 
                          CONVERGENCE INFORMATION

                               Converged?     Value      Criterion
             Energy change         yes      0.0000004   0.0000010
             RMS of displacement   yes      0.0002175   0.0005000
             RMS of gradient       yes      0.0000322   0.0005000
             MAX displacement      yes      0.0006097   0.0010000
             MAX gradient          yes      0.0000641   0.0001000
      ****************************************************************** 


    ------------------------------------------------------------------------
         total  cpu-time :   0.02 seconds
         total wall-time :   0.02 seconds
    ------------------------------------------------------------------------

   ****  statpt : all done  ****


    2019-01-28 17:31:20.304 

fine, there is no data group "$actual step"
next step = ridft
tmpdir in control file set to "/state/partition1/vallet/537224.phlam-s-sakura".
This directory must exist and be writable by the master process (slave1).
STARTING ridft ON 4 PROCESSORS!
RUNNING PROGRAM /home/pcmt/COSMOlogic/turbomole/7.3/TURBOMOLE/bin/em64t-unknown-linux-gnu_smp/ridft_mpi.
/home/pcmt/COSMOlogic/turbomole/7.3/TURBOMOLE/mpirun_scripts/PMPI/bin/mpirun -machinefile ./hostlist_from_pbs -e OMP_NUM_THREADS=4 -e TURBODIR=/home/pcmt/COSMOlogic/turbomole/7.3/TURBOMOLE -e OMP_STACK_SIZE=256M -e LD_LIBRARY_PATH=/home/pcmt/COSMOlogic/turbomole/7.3/TURBOMOLE/libso/em64t-unknown-linux-gnu_smp:/home/pcmt/COSMOlogic/turbomole/7.3/TURBOMOLE/libso/sysname:/home/pcmt/Chemcraft/Chemcraft/lib:.:/usr/lib:/usr/lib64:/usr/local/lib64:/usr/local/lib:/share/apps/lib64:/share/apps/lib:/opt/python/lib:/share/apps/lib/python2.5:/share/apps/lib /home/pcmt/COSMOlogic/turbomole/7.3/TURBOMOLE/bin/em64t-unknown-linux-gnu_smp/ridft_mpi
 u-5-4.local ( 1 ) 
 u-5-4.local ( 2 ) 
 u-5-4.local ( 3 ) 
 this is node-proc. number 0 running on node u-5-4.local
 the total number of node-proc. spawned is   4
 GA version: using    4 (total) on    1 nhosts.
 operating system is UNIX !

 ridft (u-5-4.local) : TURBOMOLE V7.3 ( 22135 ) 9 Jul 2018 at 10:31:25
 Copyright (C) 2018 TURBOMOLE GmbH, Karlsruhe


    2019-01-28 17:31:33.279 



                                  r i d f t

                        DFT program with RI approximation 
                                for coulomb part 




                                                 
                                 References:     
                                                 
          TURBOMOLE:                             
              R. Ahlrichs, M. Baer, M. Haeser, H. Horn, and
              C. Koelmel
              Electronic structure calculations on workstation
              computers: the program system TURBOMOLE
              Chem. Phys. Lett. 162: 165 (1989)
          Density Functional:                              
              O. Treutler and R. Ahlrichs                      
              Efficient Molecular Numerical Integration Schemes
              J. Chem. Phys. 102: 346 (1995)                   
          Parallel Version:                                
              Performance of parallel TURBOMOLE for Density    
              Functional Calculations                          
              M. v. Arnim and R. Ahlrichs                      
              J. Comp. Chem. 19: 1746 (1998)                   
          RI-J Method:                                     
              Auxiliary Basis Sets to approximate Coulomb      
              Potentials                                       
              Chem. Phys. Lett. 240: 283 (1995)                
              K. Eichkorn, O. Treutler, H. Oehm, M. Haeser     
              and R. Ahlrichs                                  
              Chem. Phys. Lett. 242: 652 (1995)                
                                                           
              Auxiliary Basis Sets for Main Row Atoms and their
              Use to approximate Coulomb Potentials            
              K. Eichkorn, F. Weigend, O. Treutler and         
              R. Ahlrichs                                      
              Theo. Chem. Acc. 97: 119 (1997)                   
                                                           
              Accurate Coulomb-fitting basis sets for H to Rn 
              F. Weigend                                        
              Phys. Chem. Chem. Phys. 8: 1057 (2006)            
                                                           
          Multipole accelerated RI-J (MARI-J):             
              Fast evaluation of the Coulomb potential for     
              electron densities using multipole accelerated   
              resolution of identity approximation             
              M. Sierka, A. Hogekamp and R. Ahlrichs           
              J. Chem. Phys. 118: 9136 (2003)                  
          RI-JK Method:                                     
              A fully direct RI-HF algorithm: Implementation,
              optimised auxiliary basis sets, demonstration of
              accuracy and efficiency                         
              F. Weigend                                      
              Phys. Chem. Chem. Phys. 4: 4285 (2002)           
          Two-component HF and DFT with spin-orbit coupling:  
              Self-consistent treatment of spin-orbit         
              interactions with efficient Hartree-Fock and    
              density functional methods                      
              M. K. Armbruster, F. Weigend, C. van Wüllen and 
              W. Klopper                                      
              Phys. Chem. Chem. Phys. 10: 1748 (2008)         
          Two-component difference density and DIIS algorithm 
              Efficient two-component self-consistent field   
              procedures and gradients: implementation in     
              TURBOMOLE and application to Au20-              
              A. Baldes, F. Weigend                           
              Mol. Phys. 111: 2617 (2013)                     
          Relativistic all-electron 2c calculations           
              An efficient implementation of two-component    
              relativistic exact-decoupling methods for large 
              molecules                                       
              D. Peng, N. Middendorf, F. Weigend, M. Reiher   
              J. Chem. Phys. 138: 184105 (2013)               
          Finite nucleus model and SNSO approximation         
              Efficient implementation of one- and two-       
              component analytical energy gradients in exact  
              two-component theory                            
              Y. J. Franzke, N. Middendorf, F. Weigend        
              J. Chem. Phys. 148: 104110 (2018)               
                                         


 ********** GlobalArray OPTION SETTINGS : **********
 *****************************************************


              +--------------------------------------------------+
              |      general information about current run       |
              +--------------------------------------------------+

 

 SCF run will be profiled !

 PBE0 hybrid functional
 exchange:    3/4 (LDA+PBE) + 1/4 HF
 correlation: LDA (PW) + PBE
 A Hybrid-DFT calculation using the RI-J approximation will be carried out.
 Allocatable memory for RI due to $ricore (MB):                     4


              +--------------------------------------------------+
              | Atomic coordinate, charge and isotop information |
              +--------------------------------------------------+

                    atomic coordinates            atom    charge  isotop
          0.86245361   -1.52731704    0.00000000    c      6.000     0
          0.40219202   -3.54690934    0.00000000    h      1.000     0
          2.03578450   -1.12445787    1.68083071    h      1.000     0
          2.03578450   -1.12445787   -1.68083071    h      1.000     0
         -1.37204400   -0.16829814    0.00000000    o      8.000     0
         -0.67814894    3.11447751    0.00000000    s     16.000     0
         -3.28602169    4.37696275    0.00000000    o      8.000     0
 
       center of nuclear mass  :   -1.02912958    1.80803708    0.00000000
       center of nuclear charge:   -0.93820551    1.67173731    0.00000000

              +--------------------------------------------------+
              |               basis set information              |
              +--------------------------------------------------+

              we will work with the 1s 3p 5d 7f 9g ... basis set
              ...i.e. with spherical basis functions...

   type   atoms  prim   cont   basis
   ---------------------------------------------------------------------------
    c        1     66     46   aug-cc-pVTZ   [5s4p3d2f|19s6p3d2f]
    h        3     25     23   aug-cc-pVTZ   [4s3p2d|6s3p2d]
    o        2     66     46   aug-cc-pVTZ   [5s4p3d2f|19s6p3d2f]
    s        1    122     50   aug-cc-pVTZ   [6s5p3d2f|42s17p3d2f]
   ---------------------------------------------------------------------------
   total:    7    395    257
   ---------------------------------------------------------------------------

   total number of primitive shells          :  135
   total number of contracted shells         :   85
   total number of cartesian basis functions :  299
   total number of SCF-basis functions       :  257


 integral neglect threshold       :  0.11E-09
 integral storage threshold THIZE :  0.10E-04
 integral storage threshold THIME :         5

 RI-J AUXILIARY BASIS SET information:

              we will work with the 1s 3p 5d 7f 9g ... basis set
              ...i.e. with spherical basis functions...

   type   atoms  prim   cont   basis
   ---------------------------------------------------------------------------
    c        1     70     49   aug-cc-pVTZ   [6s4p3d1f1g|12s5p4d2f1g]
    h        3     16     11   aug-cc-pVTZ   [3s1p1d|5s2p1d]
    o        2     70     49   aug-cc-pVTZ   [6s4p3d1f1g|12s5p4d2f1g]
    s        1     77     51   aug-cc-pVTZ   [8s4p3d1f1g|14s5p5d2f1g]
   ---------------------------------------------------------------------------
   total:    7    335    231
   ---------------------------------------------------------------------------

   total number of primitive shells          :   83
   total number of contracted shells         :   77
   total number of cartesian basis functions :  282
   total number of SCF-basis functions       :  231


 symmetry group of the molecule :   cs

 the group has the following generators :
   c1(z)
   mirror plane sigma(xy)

    2 symmetry operations found

 there are 2 real representations :   a'   a"  

 maximum number of shells which are related by symmetry :  2


    mo occupation :
   irrep   mo's   occupied
    a'     162       16
    a"      95        5
 
 number of basis functions   :                    257
 number of occupied orbitals :                     21
 
  
           ------------------
           density functional
           ------------------
 PBE0 hybrid functional
 exchange:    3/4 (LDA+PBE) + 1/4 HF
 correlation: LDA (PW) + PBE

 iterations will be done with small grid
  
 spherical integration : Lebedev's spherical grid
 spherical gridsize    :                     4
    i.e. gridpoints    :                   434
 value for diffuse not defined
 radial integration    : Chebyshev 2nd kind (scaling 3)
 radial gridsize       :                     6
 integration cells     :                     6
 partition function    : becke
 partition sharpness   :                     3
  

 biggest AO integral is expected to be     9.679779311
  
           ------------------------
               RI-J - INFORMATION
           ------------------------
 Memory core needed for (P|Q) and Cholesky      1 MByte on GA
 Memory core minimum needed except           1 MByte 
  
 ****************************************
 Memory allocated for RI-J 1 MByte
 plus additional 1 MByte (pqmatrix)  (GA)
 ****************************************
                                            
      allocating par_xzuhag(    3.44 MB)

          ------------------------
          nuclear repulsion energy  :   167.006913654    
          ------------------------


         -----------------
         -S,T+V- integrals
         -----------------

 1e-integrals will be neglected if expon. factor < 0.111771E-10
 
   Difference densities algorithm switched on.
   The maximal number of linear combinations of
   difference densities is                    20 .

 DIIS switched on: error vector is FDS-SDF
 Max. Iterations for DIIS is     :   4
 DIIS matrix (see manual) 
    Scaling factor of diagonals  :  1.200
    threshold for scaling factor :  0.000

 scf convergence criterion : increment of total energy < .1000000D-05
                  and increment of one-electron energy < .1000000D-02

  MOs are in ASCII format !


 closed shell shift switched on 
 all occupied orbitals are shifted by    0.05000


 reading orbital data $scfmo  from file mos
 orbital characterization : scfconv=6
 mo-orthogonalization by Cholesky decomposition

 DSCF restart information will be dumped onto file mos


 Starting SCF iterations

          Overall gridpoints after grid construction =         11299

 ITERATION  ENERGY          1e-ENERGY        2e-ENERGY     NORM[dD(SAO)]  TOL
   1  -588.27860452951    -1151.3154767     396.02995849    0.000D+00 0.111D-09
                            Exc = -37.2894506775     Coul =  445.280103789    
                            exK = -11.9606946169    
                              N = 41.998643749    
                            current damping = 0.700
 
          max. resid. norm for Fia-block=  1.688D-04 for orbital      1a'        
          max. resid. fock norm         =  2.842D-03 for orbital    162a'        

 ITERATION  ENERGY          1e-ENERGY        2e-ENERGY     NORM[dD(SAO)]  TOL
   2  -588.27860469292    -1151.3165096     396.03099127    0.891D-03 0.707D-10
                            Exc = -37.2896037796      Eck =  433.320595050    
                              N = 41.998645835    
                            current damping = 0.700
 
          Norm of current diis error: 0.99611E-03
          max. resid. norm for Fia-block=  9.820D-05 for orbital     16a'        
          max. resid. fock norm         =  1.170D-03 for orbital    162a'        

 ENERGY CONVERGED !

          Overall gridpoints after grid construction =         38608

 ITERATION  ENERGY          1e-ENERGY        2e-ENERGY     NORM[dD(SAO)]  TOL
   3  -588.27852158977    -1151.3164375     396.03100222    0.319D-03 0.560D-10
                            Exc = -37.2894501593      Eck =  433.320452376    
                              N = 41.999681368    
                            current damping = 0.750
 
          Norm of current diis error: 0.60129E-03
          max. resid. norm for Fia-block=  3.646D-05 for orbital     16a'        
          max. resid. fock norm         =  4.808D-04 for orbital    162a'        

 End of SCF iterations

   convergence criteria satisfied after     3 iterations


                  ------------------------------------------ 
                 |  total energy      =   -588.27852158977  |
                  ------------------------------------------ 
                 :  kinetic energy    =    586.17463440028  :
                 :  potential energy  =  -1174.45315599006  :
                 :  virial theorem    =      1.99642365459  :
                 :  wavefunction norm =      1.00000000000  :
                  .......................................... 


 orbitals $scfmo  will be written to file mos

    irrep                 12a'        13a'        14a'        15a'        16a'  
 eigenvalues H         -0.30076    -0.28642    -0.19061    -0.15962    -0.08358
            eV          -8.1842     -7.7938     -5.1868     -4.3435     -2.2743
 occupation              2.0000      2.0000      2.0000      2.0000      2.0000 

    irrep                 17a'        18a'        19a'        20a'        21a'  
 eigenvalues H          0.10107     0.11976     0.15198     0.16698     0.18016
            eV           2.7503      3.2588      4.1355      4.5439      4.9024

    irrep                  1a"         2a"         3a"         4a"         5a"  
 eigenvalues H         -5.77283    -0.29909    -0.17204    -0.10738     0.03071
            eV        -157.0878     -8.1388     -4.6814     -2.9221      0.8358
 occupation              2.0000      2.0000      2.0000      2.0000      2.0000 

    irrep                  6a"         7a"         8a"         9a"        10a"  
 eigenvalues H          0.12213     0.19201     0.20797     0.27164     0.30613
            eV           3.3234      5.2248      5.6591      7.3919      8.3304
 

    !!!!!!!!!!!!!!!!!!!!!!!!!!!!!!!!!!!!!!!!!!!!!!!!!!!!!!!!!!!!!!!!!!!!!!!
    !                                                                     !
    ! WARNING : ORBITAL ENERGIES SHOULD BE NEGATIVE FOR OCCUPIED ORBITALS !
    !                                                                     !
    !      orbital energy (   0.03071) of occupied MO   5a"   is > 0      !
    !!!!!!!!!!!!!!!!!!!!!!!!!!!!!!!!!!!!!!!!!!!!!!!!!!!!!!!!!!!!!!!!!!!!!!!

 
 
 
 ==============================================================================
                           electrostatic moments
 ==============================================================================

 reference point for electrostatic moments:    0.00000   0.00000   0.00000

 
              nuc           elec       ->  total
 ------------------------------------------------------------------------------
                          charge      
 ------------------------------------------------------------------------------
          41.000000     -42.000000      -1.000000
 
 ------------------------------------------------------------------------------
                       dipole moment  
 ------------------------------------------------------------------------------
   x     -38.466426      40.456267       1.989841
   y      68.541230     -71.569340      -3.028110
   z       0.000000       0.000000       0.000000
 
   | dipole moment | =     3.6234 a.u. =     9.2097 debye 
 
 ------------------------------------------------------------------------------
                     quadrupole moment
 ------------------------------------------------------------------------------
  xx     121.715275    -155.265829     -33.550554
  yy     337.794101    -376.119778     -38.325677
  zz       5.650384     -34.039962     -28.389578
  xy    -160.916618     168.375747       7.459129
  xz       0.000000       0.000000       0.000000
  yz       0.000000      -0.000000      -0.000000
 
     1/3  trace=     -33.421936
     anisotropy=      15.524097
 
 ==============================================================================
 

    ridft profiling
  --------------------------------------------------------------------
             module   cpu total (s)       %  wall total (s)       %

               RIDFT             9.2  100.00             8.6  100.00
         Ridft_b_scf             0.1    1.59             0.1    1.30
        b_scf_prelim             0.0    0.00             0.0    0.00
        b_scf_molinp             0.0    0.08             0.0    0.08
         b_scf_init0             0.0    0.00             0.0    0.01
        b_scf_auxbas             0.0    0.05             0.0    0.05
      b_scf_symmetry             0.0    0.01             0.0    0.14
         b_scf_cosmo             0.0    0.00             0.0    0.00
        b_scf_params             0.0    0.33             0.0    0.39
          b_scf_ri-j             0.0    0.53             0.0    0.32
    b_scf_ri-j_auxpq             0.0    0.53             0.0    0.30
     ri-j_auxpq_chol             0.0    0.01             0.0    0.00
         b_scf_1elec             0.0    0.11             0.0    0.05
       b_scf_moinput             0.0    0.48             0.0    0.26
     prepare.moinput             0.0    0.41             0.0    0.23
     moinput_orthmos             0.0    0.04             0.0    0.01
    b_scf_dft-dstmax             0.0    0.01             0.0    0.00
           Ridft_scf             9.1   98.22             8.4   98.61
          Scf_b_loop             0.0    0.05             0.0    0.02
                noga             0.0    0.00             0.0    0.00
            Scf_loop             9.0   97.57             8.4   98.26
     scf_loop_mkdmat             0.0    0.04             0.0    0.04
       scf_loop_ri-j             0.4    4.25             0.2    2.30
    ri-j_near_lpdrc1             0.2    2.66             0.1    1.42
    ri-j_near_lpdrc2             0.1    1.43             0.1    0.76
       scf_loop_ex-K             8.1   88.33             7.8   90.81
         scf_loop_k1             8.0   86.62             7.7   89.55
     scf_loop_symcar             0.0    0.05             0.0    0.01
      scf_loop_dfmat             0.0    0.01             0.0    0.02
        scf_loop_dft             0.4    4.52             0.4    4.87
        dft_grid_con             0.0    0.29             0.0    0.32
         dft_xc_eval             0.4    4.18             0.4    4.50
     scf_loop_energy             0.0    0.00             0.0    0.01
     scf_loop_mkfock             0.0    0.00             0.0    0.00
       scf_loop_diis             0.0    0.07             0.0    0.07
       scf_loop_diag             0.0    0.26             0.0    0.12
     scf_loop_modump             0.0    0.00             0.0    0.00
          Scf_a_loop             0.1    0.59             0.0    0.32
         Ridft_a_scf             0.0    0.18             0.0    0.09
         a_scf_fanal             0.0    0.18             0.0    0.09
 


    ------------------------------------------------------------------------
         total  cpu-time :   9.28 seconds
         total wall-time :   8.68 seconds
    ------------------------------------------------------------------------

   ****  ridft : all done  ****


    2019-01-28 17:31:41.856 

fine, there is no data group "$actual step"
next step = rdgrad
 energy change  : actual value =  -0.4245E-06 threshold =   0.1000E-05
 geom. gradient : actual value =   0.6408E-04 threshold =   0.1000E-03

CONVERGENCY CRITERIA FULFILLED IN CYCLE 9

