   This run of MOLCAS is using the pymolcas driver

                             OPE
                             OPE          NMOL  CASOP  ENMOLC A   SO
                 OPE        NMOLC        AS  OP EN  MO LC     AS  OP
                OPENM       OL CA        SO  PE NM  OL CA     SOP EN
                OP EN      MO   LC       AS  OP ENMOL  CASO   PENMOL
                OP  EN     MO   LC       AS  OP EN     MO     LC ASO
               OP   E  NMOL  C  AS       OP  EN MO     LC     AS  OP
               OP  E   NMO   LC AS        OPEN  MO     LCASOP EN   M
               O  PEN   MO  LCA  SO
            OPE   NMO   L   CAS    OP
        OPENMOL  CASOP     ENMOL   CASOPE
     OPENMOLCA   SOPENMOLCASOPEN   MOLCASOPE
    OPENMOLCAS   OP           EN   MOL    CAS
    OPENMOLCAS       OP  ENM        O     LCA
    OPENMOLCAS    OPEN  MOLCASO     P  E  NMO
    OPENMOLCAS     OP               E  N  MOL
    OPENMOLCA   SO           PENM   O  L  CAS    OPEN    MO    LCAS
    OPENMOLCA   SOP           ENM   O  L  CAS   OP  EN  MOLC  AS   O
    OPENMOLCA   SOPE           NM      O  LCA   S      OP  EN MO
    OPENMOLC                AS         O  PEN   M      OL  CA  SOPE
    OPENMO        LCASOPE  NMOL        C  ASO   P      ENMOLC     AS
    OPE     NMO      LCA  SO     P     E   NM   OL  CA SO  PE N   MO
          OPENMOLCA            SOPE   NMO        LCAS  O    P  ENMO
     OPENMOLCASOPENMOLCASOPENMOLCASOPENMOLCA
        OPENMOLCASOPENMOLCASOPENMOLCASOPE
            OPENMOLCASOPENMOLCASOPENM
               OPENMOLCASOPENMOLCA        version: 18.09
                   OPENMOLCASO
                       OPE                tag: 160-g170ac64-dirty

 OpenMolcas is free software; you can redistribute it and/or modify it
 under the terms of the GNU Lesser General Public License version 2.1.
 OpenMolcas is distributed in the hope that it will be useful, but it
 is provided "as is" and without any express or implied warranties.
 For more details see the full text of the license in the file
 LICENSE or in <http://www.gnu.org/licenses/>.

                 Copyright (C) The OpenMolcas Authors
           For the author list and the recommended citation,
                   consult the file CONTRIBUTORS.md

           *************************************************
           * pymolcas version py2.05                       *
           *   build e639e37c9a57315123c35f99e509df06      *
           *   (after the EMIL interpreter by V. Veryazov) *
           *************************************************

configuration info
------------------
C Compiler ID: Intel
C flags: -std=gnu99 -qopenmp
Fortran Compiler ID: Intel
Fortran flags: -fpp -mcmodel=large -i8 -r8 -heap-arrays -qopenmp
Definitions: _MOLCAS_;_I8_;_LINUX_;_MKL_;_FDE_
Parallel: OFF (GA=OFF)


   ---------------------------------------------------------------------------------------------------------------------------------------------
  |
  |           Project: NpO2_CH3SO2_O2-m1-doublet.dump_SOOrb-2.VTZ
  |    Submitted from: /home/vallet/John-methylsulfonyl/NpO2_CH3SO2_O2-m1/doublet-geom/optg-freq-pbe0-superoxo/SO-XMS/NaturalOrbitals-openmolcas
  |      Scratch area: /state/partition2/vallet/523598.phlam-s-sakura/NpO2_CH3SO2_O2-m1-doublet.dump_SOOrb-2.VTZ
  |   Save outputs to: /home/vallet/John-methylsulfonyl/NpO2_CH3SO2_O2-m1/doublet-geom/optg-freq-pbe0-superoxo/SO-XMS/NaturalOrbitals-openmolcas
  |            Molcas: /home/pcmt/OpenMolcas/OpenMolcas-20181120
  |
  | Scratch area is empty
  |
  |    MOLCAS_DRIVER = /home/pcmt/OpenMolcas/OpenMolcas-20181120/sbin/pymolcas
  |   MOLCAS_LICENSE = /home/pcmt/molcas/license
  |    MOLCAS_MOLDEN = ON
  |    MOLCAS_NPROCS = 1
  |    MOLCAS_SOURCE = /home/pcmt/OpenMolcas/OpenMolcas-20181120
  | MOLCAS_STRUCTURE = 0
  |
   ---------------------------------------------------------------------------------------------------------------------------------------------

++ ---------   Input file   ---------

&GATEWAY
   COORD=$HomeDir/NpO2_CH3SO2_O2-m1-doublet.pbe0.optg-zaxis.xyz
   BASIS=ANO-RCC-VTZP, Np.ANO-RCC...9s8p6d4f2g.
   Group=Nosym
   ANGM=0.0 0.0 0.0
   RICD

&SEWARD

>>> COPY $HomeDir/NpO2_CH3SO2_O2-m1-doublet.dump_SOOrb.VTZ.SOOrb.1 INPORB

&RASSCF
   Spin=4
   Symmetry=1
   Nactel=5 0 0
   Inactive=81
   Ras2=6
   CIRoots=1 1 1
   LUMORB
   CIONLY

>>> COPY $Project.rasscf.molden $HomeDir/NpO2_CH3SO2_O2-m1-doublet.dump_SOOrb.VTZ.SOOrb.1.molden

>>> COPY $HomeDir/NpO2_CH3SO2_O2-m1-doublet.dump_SOOrb.VTZ.SODSOrb.Z.Z1 INPORB

&RASSCF
   Spin=4
   Symmetry=1
   Nactel=5 0 0
   Inactive=81
   Ras2=6
   CIRoots=1 1 1
   LUMORB
   CIONLY

>>> COPY $Project.rasscf.molden $HomeDir/NpO2_CH3SO2_O2-m1-doublet.dump_SOOrb.VTZ.SODSOrb.Z.Z1.molden

-- ----------------------------------

--- Start Module: gateway at Fri Dec 14 17:15:28 2018 ---
 
()()()()()()()()()()()()()()()()()()()()()()()()()()()()()()()()()()()()()()()()()()()()()()()()()()

                                              &GATEWAY

                                   only a single process is used
                       available to each process: 32 GB of memory, 8 threads
()()()()()()()()()()()()()()()()()()()()()()()()()()()()()()()()()()()()()()()()()()()()()()()()()()
 
 
++    Symmetry information:
      ---------------------
 
                    Character Table for C1 
 
                             E  
                    a        1  x, y, xy, Rz, z, xz, Ry, yz, Rx, I
--
 
 
++    Basis set information:
      ----------------------
 
 
      Basis set label: C.ANO-RCC...4S3P2D1F.
 
      Electronic valence basis set:
      ------------------
      Associated Effective Charge   6.000000 au
      Associated Actual Charge      6.000000 au
      Nuclear Model: Point charge
 
      Shell  nPrim  nBasis  Cartesian Spherical Contaminant
         s      14       4        X                  
         p       9       3        X                  
         d       4       2                 X         
         f       3       1                 X         
 
 
      Basis set label: S.ANO-RCC...5S4P2D1F.
 
      Electronic valence basis set:
      ------------------
      Associated Effective Charge  16.000000 au
      Associated Actual Charge     16.000000 au
      Nuclear Model: Point charge
 
      Shell  nPrim  nBasis  Cartesian Spherical Contaminant
         s      17       5        X                  
         p      12       4        X                  
         d       5       2                 X         
         f       4       1                 X         
 
 
      Basis set label: O.ANO-RCC...4S3P2D1F.
 
      Electronic valence basis set:
      ------------------
      Associated Effective Charge   8.000000 au
      Associated Actual Charge      8.000000 au
      Nuclear Model: Point charge
 
      Shell  nPrim  nBasis  Cartesian Spherical Contaminant
         s      14       4        X                  
         p       9       3        X                  
         d       4       2                 X         
         f       3       1                 X         
 
 
      Basis set label: NP.ANO-RCC...9S8P6D4F2G......
 
      Electronic valence basis set:
      ------------------
      Associated Effective Charge  93.000000 au
      Associated Actual Charge     93.000000 au
      Nuclear Model: Point charge
 
      Shell  nPrim  nBasis  Cartesian Spherical Contaminant
         s      26       9        X                  
         p      23       8        X                  
         d      17       6                 X         
         f      13       4                 X         
         g       5       2                 X         
 
 
      Basis set label: O.ANO-RCC...4S3P2D1F.
 
      Electronic valence basis set:
      ------------------
      Associated Effective Charge   8.000000 au
      Associated Actual Charge      8.000000 au
      Nuclear Model: Point charge
 
      Shell  nPrim  nBasis  Cartesian Spherical Contaminant
         s      14       4        X                  
         p       9       3        X                  
         d       4       2                 X         
         f       3       1                 X         
 
 
      Basis set label: H.ANO-RCC...3S2P1D.
 
      Electronic valence basis set:
      ------------------
      Associated Effective Charge   1.000000 au
      Associated Actual Charge      1.000000 au
      Nuclear Model: Point charge
 
      Shell  nPrim  nBasis  Cartesian Spherical Contaminant
         s       8       3        X                  
         p       4       2        X                  
         d       3       1                 X         
 
 
      Basis set label: O.ANO-RCC...4S3P2D1F.
 
      Electronic valence basis set:
      ------------------
      Associated Effective Charge   8.000000 au
      Associated Actual Charge      8.000000 au
      Nuclear Model: Point charge
 
      Shell  nPrim  nBasis  Cartesian Spherical Contaminant
         s      14       4        X                  
         p       9       3        X                  
         d       4       2                 X         
         f       3       1                 X         
--
 
 
++    Molecular structure info:
      -------------------------
 
                    ************************************************ 
                    **** Cartesian Coordinates / Bohr, Angstrom **** 
                    ************************************************ 
 
     Center  Label                x              y              z                     x              y              z
        1      C1              -5.430714       3.615972      -3.723403             -2.873810       1.913490      -1.970340
        2      S2              -4.904727       3.279828      -0.347502             -2.595470       1.735610      -0.183890
        3      O3              -4.771067       0.399110      -0.073983             -2.524740       0.211200      -0.039150
        4      NP4              0.000000       0.000000       0.000000              0.000000       0.000000       0.000000
        5      O5               4.008449      -1.957983      -0.060528              2.121180      -1.036120      -0.032030
        6      O6              -2.202079       4.283253      -0.084565             -1.165290       2.266600      -0.044750
        7      O7               0.000000       0.000000       3.354472              0.000000       0.000000       1.775110
        8      O8               0.051306       0.087060      -3.362201              0.027150       0.046070      -1.779200
        9      H9              -5.395678       5.623353      -4.188389             -2.855270       2.975750      -2.216400
       10      H10             -3.898089       2.601435      -4.657192             -2.062780       1.376620      -2.464480
       11      H11             -7.264674       2.793147      -4.177920             -3.844300       1.478070      -2.210860
       12      O12              2.337308      -3.783780      -0.129862              1.236850      -2.002290      -0.068720
 
                    *************************************** 
                    *    InterNuclear Distances / Bohr    * 
                    *************************************** 
 
               1 C1            2 S2            3 O3            4 NP4           5 O5            6 O6    
    1 C1       0.000000
    2 S2       3.433127        0.000000
    3 O3       4.909338        2.896759        0.000000
    4 NP4      7.512099        5.910531        4.788303        0.000000
    5 O5      11.557830       10.342231        9.090433        4.461505        0.000000
    6 O6       4.910243        2.894876        4.656864        4.816904        8.804787        0.000000
    7 O7       9.626225        6.965503        5.888690        3.354472        5.618148        5.917971
    8 O8       6.529643        6.621514        5.845086        3.363719        5.544567        5.781754
    9 H9       2.060829        4.526097        6.679161        8.847488       12.765324        5.369945
   10 H10      2.061598        4.477384        5.159276        6.606966       10.219147        5.158864
   11 H11      2.060834        4.525297        5.365798        8.833582       12.907729        6.678760
   12 O12     11.314240       10.118744        8.247950        4.449366        2.476097        9.256625
 
               7 O7            8 O8            9 H9           10 H10          11 H11          12 O12   
    7 O7       0.000000
    8 O8       6.717433        0.000000
    9 H9      10.845745        7.810427        0.000000
   10 H10      9.281666        4.857655        3.405075        0.000000
   11 H11     10.831163        7.842951        3.391654        3.405929        0.000000
   12 O12      5.649830        5.536896       12.836076       10.007390       12.322370        0.000000
 
                    ******************************************* 
                    *    InterNuclear Distances / Angstrom    * 
                    ******************************************* 
 
               1 C1            2 S2            3 O3            4 NP4           5 O5            6 O6    
    1 C1       0.000000
    2 S2       1.816733        0.000000
    3 O3       2.597910        1.532899        0.000000
    4 NP4      3.975232        3.127718        2.533861        0.000000
    5 O5       6.116140        5.472873        4.810450        2.360927        0.000000
    6 O6       2.598389        1.531902        2.464306        2.548996        4.659292        0.000000
    7 O7       5.093979        3.685985        3.116161        1.775110        2.972996        3.131656
    8 O8       3.455338        3.503954        3.093087        1.780003        2.934059        3.059572
    9 H9       1.090544        2.395108        3.534460        4.681889        6.755119        2.841653
   10 H10      1.090951        2.369330        2.730172        3.496256        5.407740        2.729953
   11 H11      1.090546        2.394684        2.839458        4.674530        6.830476        3.534248
   12 O12      5.987238        5.354609        4.364627        2.354503        1.310294        4.898395
 
               7 O7            8 O8            9 H9           10 H10          11 H11          12 O12   
    7 O7       0.000000
    8 O8       3.554712        0.000000
    9 H9       5.739321        4.133100        0.000000
   10 H10      4.911646        2.570560        1.801888        0.000000
   11 H11      5.731605        4.150311        1.794786        1.802340        0.000000
   12 O12      2.989761        2.929999        6.792559        5.295683        6.520717        0.000000
 
                    ************************************** 
                    *    Valence Bond Angles / Degree    * 
                    ************************************** 
                          Atom centers                 Phi
                      9 H9       1 C1      10 H10      111.38
                      9 H9       1 C1      11 H11      110.75
                     10 H10      1 C1      11 H11      111.42
                      3 O3       2 S2       6 O6       107.04
--
 
 
            Nuclear Potential Energy           1873.81240793 au
 
--- Stop Module: gateway at Fri Dec 14 17:18:19 2018 /rc=_RC_ALL_IS_WELL_ ---
*** files: NpO2_CH3SO2_O2-m1-doublet.dump_SOOrb-2.VTZ.RICDLib xmldump
    saved to directory /home/vallet/John-methylsulfonyl/NpO2_CH3SO2_O2-m1/doublet-geom/optg-freq-pbe0-superoxo/SO-XMS/NaturalOrbitals-openmolcas
--- Module gateway spent 2 minutes 51 seconds ---

--- Start Module: seward at Fri Dec 14 17:18:19 2018 ---
 
()()()()()()()()()()()()()()()()()()()()()()()()()()()()()()()()()()()()()()()()()()()()()()()()()()

                                              &SEWARD

                                   only a single process is used
                       available to each process: 32 GB of memory, 8 threads
()()()()()()()()()()()()()()()()()()()()()()()()()()()()()()()()()()()()()()()()()()()()()()()()()()
 
               SEWARD will generate:
                  Multipole Moment integrals up to order  2
                  Kinetic Energy integrals
                  Nuclear Attraction integrals (point charge)
                  One-Electron Hamiltonian integrals
                  Velocity integrals
                  Relativistic Douglas-Kroll-Hess integrals:
                    - Parametrization         : EXP
                    - DKH order of Hamiltonian: 2
                    - DKH order of Properties : 0
                         - multipole moment operators
                         - electric potential operators
                         - contact operators
                  Orbital angular momentum around ( 0.0000  0.0000  0.0000 )
                  Atomic mean-field integrals
                  RI decomposed two-electron repulsion integrals stored Cholesky style
                   - acCD auxiliary basis
                   - CD Threshold:   0.10E-03
 
                   Integrals are discarded if absolute value <: 0.10E-13
                   Integral cutoff threshold is set to       <: 0.10E-15
 
            Nuclear Potential Energy           1873.81240793 au
 
 
      Basis set specifications :
      Symmetry species         a  
      Basis functions          395
 
 
 Post_2Center_RI
 Detected lin. dependences in the auxiliary basis.
 # of AuxBas before l. d. removal:   3732
 # of AuxBas after  l. d. removal:   3713
 
 
  Input file to MOLDEN was generated!
 
--- Stop Module: seward at Fri Dec 14 17:22:55 2018 /rc=_RC_ALL_IS_WELL_ ---
*** files: NpO2_CH3SO2_O2-m1-doublet.dump_SOOrb-2.VTZ.GssOrb NpO2_CH3SO2_O2-m1-doublet.dump_SOOrb-2.VTZ.guessorb.h5 NpO2_CH3SO2_O2-m1-doublet.dump_SOOrb-2.VTZ.guessorb.molden
           xmldump
    saved to directory /home/vallet/John-methylsulfonyl/NpO2_CH3SO2_O2-m1/doublet-geom/optg-freq-pbe0-superoxo/SO-XMS/NaturalOrbitals-openmolcas
--- Module seward spent 4 minutes 35 seconds ---

>>> COPY /home/vallet/John-methylsulfonyl/NpO2_CH3SO2_O2-m1/doublet-geom/optg-freq-pbe0-superoxo/SO-XMS/NaturalOrbitals-openmolcas/NpO2_CH3SO2_O2-m1-doublet.dump_SOOrb.VTZ.SOOrb.1 INPORB

--- Start Module: rasscf at Fri Dec 14 17:22:55 2018 ---
 
()()()()()()()()()()()()()()()()()()()()()()()()()()()()()()()()()()()()()()()()()()()()()()()()()()

                                              &RASSCF

                                   only a single process is used
                       available to each process: 32 GB of memory, 8 threads
()()()()()()()()()()()()()()()()()()()()()()()()()()()()()()()()()()()()()()()()()()()()()()()()()()
 
 
      Header of the ONEINT file:
      --------------------------
      
      Integrals generated by seward 4.2.0  , Fri Dec 14 17:18:20 2018
 
 
      OrdInt status: non-squared
 
 
      Cartesian coordinates in Angstrom:
      -----------------------------------------------------
      No.  Label        X            Y            Z        
      -----------------------------------------------------
       1   C1        -2.87381000   1.91349000  -1.97034000
       2   S2        -2.59547000   1.73561000  -0.18389000
       3   O3        -2.52474000   0.21120000  -0.03915000
       4   NP4        0.00000000   0.00000000   0.00000000
       5   O5         2.12118000  -1.03612000  -0.03203000
       6   O6        -1.16529000   2.26660000  -0.04475000
       7   O7         0.00000000   0.00000000   1.77511000
       8   O8         0.02715000   0.04607000  -1.77920000
       9   H9        -2.85527000   2.97575000  -2.21640000
      10   H10       -2.06278000   1.37662000  -2.46448000
      11   H11       -3.84430000   1.47807000  -2.21086000
      12   O12        1.23685000  -2.00229000  -0.06872000
      -----------------------------------------------------
      Nuclear repulsion energy = 1873.81240793
 
++    Wave function specifications:
      -----------------------------
 
      Number of closed shell electrons         162
      Number of electrons in active shells       5
      Max number of holes in RAS1 space          0
      Max nr of electrons in RAS3 space          0
      Number of inactive orbitals               81
      Number of active orbitals                  6
      Number of secondary orbitals             308
      Spin quantum number                      1.5
      State symmetry                             1
--
 
++    Orbital specifications:
      -----------------------
 
      Symmetry species                           1
                                                 a
      Frozen orbitals                            0
      Inactive orbitals                         81
      Active orbitals                            6
      RAS1 orbitals                              0
      RAS2 orbitals                              6
      RAS3 orbitals                              0
      Secondary orbitals                       308
      Deleted orbitals                           0
      Number of basis functions                395
--
 
++    CI expansion specifications:
      ----------------------------
 
      Number of CSFs                            84
      Number of determinants                    90
      Number of root(s) required                 1
      Root chosen for geometry opt.              1
      CI root used                               1
         
      highest root included in the CI            1
      max. size of the explicit Hamiltonian     84
--
 
++    Optimization specifications:
      ----------------------------
 
      RASSCF algorithm: LK RI/DF
      Maximum number of macro iterations       200
      Maximum number of SX iterations          100
      Threshold for RASSCF energy            0.100E-07
      Threshold for max MO rotation          0.100E+00
      Threshold for max BLB element          0.100E-03
      Level shift parameter                  0.500E+00
      Make Quasi-Newton update
--
 
      The MO-coefficients are taken from the file:
      INPORB                                                                                                                          
      Title: DENSITY FOR PROPERTY TYPE HERMSING01.01                                       
 
      Total molecular charge   -1.00
 
      ************************************************************************************************************************
      *                                                                                                                      *
      *                                            Wave function control section                                             *
      *                                                                                                                      *
      ************************************************************************************************************************
 
 
                                         CASCI only, no orbital optimization will be done.
                                         -------------------------------------------------
 
      Iter CI   SX   CI       RASSCF       Energy    max ROT     max BLB   max BLB  Level Ln srch  Step   QN   Walltime
          iter iter root      energy       change     param      element    value   shift minimum  type update hh:mm:ss
 Nr of preliminary CI iterations:   1
        1   1    0    1-29624.94404543    0.00E+00   0.00E+00   80  91 1  0.28E-01*  0.00   0.00    SX    NO    0:03:59
 
      ************************************************************************************************************************
                                                      Wave function printout:
                       occupation of active orbitals, and spin coupling of open shells (u,d: Spin up or down)
      ************************************************************************************************************************
 
      Note: transformation to natural orbitals
      has been made, which may change the order of the CSFs.
 
      printout of CI-coefficients larger than  0.05 for root  1
      energy=  -29624.944046
      conf/sym  111111     Coeff  Weight
             1  2uuu00  -0.10054 0.01011
             2  2uu0u0   0.78209 0.61167
            11  2u0u0u   0.60013 0.36016
            12  2u00uu   0.08304 0.00690
            16  20uuu0   0.10515 0.01106
 
      Natural orbitals and occupation numbers for root  1
      sym 1:   1.999956   0.999998   0.633059   0.366950   0.633053   0.366983
 
      ************************************************************************************************************************
      *                                                                                                                      *
      *                                                    Final results                                                     *
      *                                                                                                                      *
      ************************************************************************************************************************
 
 
++    Wave function specifications:
      -----------------------------
 
      Number of closed shell electrons         162
      Number of electrons in active shells       5
      Max number of holes in RAS1 space          0
      Max nr of electrons in RAS3 space          0
      Number of inactive orbitals               81
      Number of active orbitals                  6
      Number of secondary orbitals             308
      Spin quantum number                      1.5
      State symmetry                             1
--
 
++    Orbital specifications:
      -----------------------
 
      Symmetry species                           1
                                                 a
      Frozen orbitals                            0
      Inactive orbitals                         81
      Active orbitals                            6
      RAS1 orbitals                              0
      RAS2 orbitals                              6
      RAS3 orbitals                              0
      Secondary orbitals                       308
      Deleted orbitals                           0
      Number of basis functions                395
--
 
++    CI expansion specifications:
      ----------------------------
 
      Number of CSFs                            84
      Number of determinants                    90
      Number of root(s) required                 1
      CI root used                               1
      highest root included in the CI            1
      Root passed to geometry opt.               1
--
 
++    Final optimization conditions:
      ------------------------------
 
      Average CI energy                          -29624.94404562
      RASSCF energy for state  1                 -29624.94404562
      Super-CI energy                                 0.00000000
      RASSCF energy change                            0.00000000
      Max change in MO coefficients               0.000E+00
      Max non-diagonal density matrix element     0.000E+00
      Maximum BLB matrix element                  0.283E-01
      (orbital pair  80,  91 in symmetry   1)
      Norm of electronic gradient            0.918E-01
--
 
 
      Final state energy(ies):
      ------------------------
 
::    RASSCF root number  1 Total energy: -29624.94404562
 
++    Molecular orbitals:
      -------------------
 
      Pseudonatural active orbitals and approximate occupation numbers
 
 
      MOLECULAR ORBITALS FOR SYMMETRY SPECIES 1: a  
 
      INDEX  ENERGY  OCCUPATION COEFFICIENTS ...
          1    0.0000    2.0000                                                                                                           
                31 S2     1s     ( 0.2094)  97 NP4    3s     ( 0.5420) 121 NP4    3pz    (-0.7891)
          2    0.0000    2.0000                                                                                                           
                31 S2     1s     (-0.5493)  96 NP4    2s     (-0.2294)  97 NP4    3s     ( 0.7169) 121 NP4    3pz    ( 0.3368)
      
          3    0.0000    2.0000                                                                                                           
                31 S2     1s     (-0.7048)  96 NP4    2s     ( 0.5629)  97 NP4    3s     (-0.2372) 105 NP4    3px    (-0.1938)
               121 NP4    3pz    (-0.2800)
          4    0.0000    2.0000                                                                                                           
                31 S2     1s     (-0.3350)  95 NP4    1s     ( 0.1024)  96 NP4    2s     (-0.7791)  97 NP4    3s     (-0.3391)
               105 NP4    3px    (-0.1208) 121 NP4    3pz    (-0.3524)
          5    0.0000    2.0000                                                                                                           
                31 S2     1s     (-0.1809) 104 NP4    2px    ( 0.1121) 105 NP4    3px    ( 0.9210) 106 NP4    4px    ( 0.1122)
               113 NP4    3py    (-0.2379) 121 NP4    3pz    (-0.1581)
          6    0.0000    2.0000                                                                                                           
                95 NP4    1s     ( 0.2902) 104 NP4    2px    ( 0.1789) 105 NP4    3px    ( 0.2059) 113 NP4    3py    ( 0.8745)
               114 NP4    4py    ( 0.1047) 120 NP4    2pz    ( 0.2079)
          7    0.0000    2.0000                                                                                                           
                95 NP4    1s     (-0.4147) 113 NP4    3py    ( 0.3216) 120 NP4    2pz    (-0.8106) 140 NP4    3d0    ( 0.1940)
      
          8    0.0000    2.0000                                                                                                           
                95 NP4    1s     (-0.8095) 104 NP4    2px    ( 0.3315) 120 NP4    2pz    ( 0.4293) 140 NP4    3d0    (-0.1465)
      
          9    0.0000    2.0000                                                                                                           
                95 NP4    1s     ( 0.1029)  98 NP4    4s     ( 0.2873) 104 NP4    2px    ( 0.4855) 113 NP4    3py    (-0.1126)
               120 NP4    2pz    ( 0.1265) 140 NP4    3d0    ( 0.7858)
         10    0.0000    2.0000                                                                                                           
                95 NP4    1s     (-0.2326) 104 NP4    2px    (-0.7667) 105 NP4    3px    ( 0.1731) 112 NP4    2py    ( 0.1105)
               113 NP4    3py    ( 0.1639) 120 NP4    2pz    ( 0.2705) 140 NP4    3d0    ( 0.4495)
         11    0.0000    2.0000                                                                                                           
               104 NP4    2px    ( 0.1022) 112 NP4    2py    ( 0.9600) 134 NP4    3d1-   ( 0.2035)
         12    0.0000    2.0000                                                                                                           
               112 NP4    2py    ( 0.2074) 134 NP4    3d1-   (-0.8959) 140 NP4    3d0    (-0.1224) 146 NP4    3d1+   ( 0.3402)
      
         13    0.0000    2.0000                                                                                                           
                98 NP4    4s     (-0.8890) 134 NP4    3d1-   (-0.1738) 140 NP4    3d0    ( 0.2562) 146 NP4    3d1+   (-0.2802)
      
         14    0.0000    2.0000                                                                                                           
                32 S2     2s     ( 0.1744)  98 NP4    4s     (-0.2958) 134 NP4    3d1-   ( 0.2856) 146 NP4    3d1+   ( 0.8779)
      
         15    0.0000    2.0000                                                                                                           
                32 S2     2s     ( 0.8327)  36 S2     2px    (-0.3608)  40 S2     2py    ( 0.2378)  44 S2     2pz    ( 0.2454)
               134 NP4    3d1-   (-0.1486) 146 NP4    3d1+   (-0.1504)
         16    0.0000    2.0000                                                                                                           
               128 NP4    3d2-   ( 0.1928) 152 NP4    3d2+   ( 0.9725)
         17    0.0000    2.0000                                                                                                           
                32 S2     2s     (-0.1400)  44 S2     2pz    ( 0.4784) 128 NP4    3d2-   ( 0.8351) 129 NP4    4d2-   (-0.1301)
               152 NP4    3d2+   (-0.1495)
         18    0.0000    2.0000                                                                                                           
                 1 C1     1s     ( 0.4112)  32 S2     2s     ( 0.1683)  44 S2     2pz    (-0.7488) 128 NP4    3d2-   ( 0.4477)
               152 NP4    3d2+   (-0.1103)
         19    0.0000    2.0000                                                                                                           
                 1 C1     1s     (-0.9035)  32 S2     2s     ( 0.1329)  44 S2     2pz    (-0.3687) 128 NP4    3d2-   ( 0.1646)
      
         20    0.0000    2.0000                                                                                                           
                36 S2     2px    (-0.4257)  40 S2     2py    (-0.8960)
         21    0.0000    2.0000                                                                                                           
                32 S2     2s     (-0.1934)  36 S2     2px    (-0.3484)  65 O3     1s     (-0.9069)
         22    0.0000    2.0000                                                                                                           
                32 S2     2s     (-0.3445)  36 S2     2px    (-0.6486)  40 S2     2py    ( 0.3089)  65 O3     1s     ( 0.3703)
               234 O6     1s     (-0.4644)
         23    0.0000    2.0000                                                                                                           
                36 S2     2px    (-0.1366) 234 O6     1s     ( 0.2704) 294 O8     1s     ( 0.9431)
         24    0.0000    2.0000                                                                                                           
                32 S2     2s     (-0.1681)  36 S2     2px    (-0.3289)  40 S2     2py    ( 0.1756)  65 O3     1s     ( 0.1180)
               234 O6     1s     ( 0.8157) 264 O7     1s     ( 0.2139) 294 O8     1s     (-0.3022)
         25    0.0000    2.0000                                                                                                           
               234 O6     1s     (-0.1636) 264 O7     1s     ( 0.9733) 294 O8     1s     ( 0.1083)
         26    0.0000    2.0000                                                                                                           
               106 NP4    4px    (-0.5536) 114 NP4    4py    ( 0.8063)
         27    0.0000    2.0000                                                                                                           
               106 NP4    4px    ( 0.8148) 114 NP4    4py    ( 0.5648)
         28    0.0000    2.0000                                                                                                           
               122 NP4    4pz    ( 0.8214) 170 NP4    4f0    (-0.5442)
         29    0.0000    2.0000                                                                                                           
               129 NP4    4d2-   ( 0.1095) 153 NP4    4d2+   ( 0.9805)
         30    0.0000    2.0000                                                                                                           
               128 NP4    3d2-   ( 0.1522) 129 NP4    4d2-   ( 0.9760) 153 NP4    4d2+   (-0.1031)
         31    0.0000    2.0000                                                                                                           
               122 NP4    4pz    (-0.5546) 170 NP4    4f0    (-0.8172)
         32    0.0000    2.0000                                                                                                           
                99 NP4    5s     ( 0.1129) 135 NP4    4d1-   ( 0.5920) 141 NP4    4d0    ( 0.3111) 147 NP4    4d1+   (-0.7269)
      
         33    0.0000    2.0000                                                                                                           
               135 NP4    4d1-   ( 0.7698) 147 NP4    4d1+   ( 0.6334)
         34    0.0000    2.0000                                                                                                           
                99 NP4    5s     ( 0.3646) 135 NP4    4d1-   (-0.2282) 141 NP4    4d0    ( 0.8583) 147 NP4    4d1+   ( 0.2429)
      
         35    0.0000    2.0000                                                                                                           
                 2 C1     2s     ( 0.6654)   5 C1     2px    (-0.1084)  33 S2     3s     ( 0.1514)  45 S2     3pz    (-0.1112)
               324 H9     1s     ( 0.1945) 352 H11    1s     ( 0.2133) 366 O12    1s     ( 0.1019)
         36    0.0000    2.0000                                                                                                           
               174 NP4    4f1+   (-0.1590) 366 O12    1s     ( 0.9756)
         37    0.0000    2.0000                                                                                                           
               166 NP4    4f1-   (-0.6264) 174 NP4    4f1+   ( 0.7356) 204 O5     1s     ( 0.1506) 366 O12    1s     ( 0.1065)
      
         38    0.0000    2.0000                                                                                                           
               166 NP4    4f1-   ( 0.7489) 174 NP4    4f1+   ( 0.5764) 182 NP4    4f3+   (-0.1032) 204 O5     1s     ( 0.2515)
               366 O12    1s     ( 0.1312)
         39    0.0000    2.0000                                                                                                           
               166 NP4    4f1-   ( 0.1084) 174 NP4    4f1+   ( 0.2627) 204 O5     1s     (-0.9447)
         40    0.0000    2.0000                                                                                                           
                33 S2     3s     (-0.1795)  99 NP4    5s     (-0.8697) 141 NP4    4d0    ( 0.3600)
         41    0.0000    2.0000                                                                                                           
                 5 C1     2px    ( 0.1415)   8 C1     2py    ( 0.2847)  33 S2     3s     (-0.4020)  37 S2     3px    ( 0.1054)
                41 S2     3py    ( 0.1373)  66 O3     2s     (-0.3593)  72 O3     2py    (-0.2056)  99 NP4    5s     ( 0.1771)
               324 H9     1s     ( 0.2930) 352 H11    1s     (-0.2017)
         42    0.0000    2.0000                                                                                                           
                 5 C1     2px    ( 0.1889)   8 C1     2py    ( 0.2247)  33 S2     3s     ( 0.4603)  41 S2     3py    ( 0.1423)
                99 NP4    5s     (-0.1455) 235 O6     2s     ( 0.3725) 238 O6     2px    (-0.2091) 324 H9     1s     ( 0.1844)
               352 H11    1s     (-0.2704)
         43    0.0000    2.0000                                                                                                           
               123 NP4    5pz    ( 0.3485) 265 O7     2s     ( 0.6255) 295 O8     2s     (-0.6200)
         44    0.0000    2.0000                                                                                                           
               162 NP4    4f2-   (-0.4036) 178 NP4    4f2+   (-0.9090)
         45    0.0000    2.0000                                                                                                           
                 5 C1     2px    ( 0.1609)   8 C1     2py    ( 0.1783)  33 S2     3s     (-0.3309)  37 S2     3px    ( 0.1161)
                41 S2     3py    (-0.1910)  66 O3     2s     ( 0.7380)  69 O3     2px    (-0.1002) 182 NP4    4f3+   (-0.1257)
               235 O6     2s     (-0.1134) 324 H9     1s     ( 0.2110) 352 H11    1s     (-0.1871)
         46    0.0000    2.0000                                                                                                           
                 8 C1     2py    (-0.1391)  33 S2     3s     (-0.2736)  37 S2     3px    ( 0.1472) 162 NP4    4f2-   ( 0.5221)
               178 NP4    4f2+   (-0.2471) 182 NP4    4f3+   ( 0.1014) 235 O6     2s     ( 0.4084) 265 O7     2s     ( 0.3684)
               295 O8     2s     ( 0.3528) 324 H9     1s     (-0.1048)
         47    0.0000    2.0000                                                                                                           
                33 S2     3s     (-0.1994)  37 S2     3px    ( 0.1064) 162 NP4    4f2-   (-0.7421) 178 NP4    4f2+   ( 0.3227)
               235 O6     2s     ( 0.3234) 265 O7     2s     ( 0.2481) 295 O8     2s     ( 0.2269)
         48    0.0000    2.0000                                                                                                           
                 5 C1     2px    ( 0.1167)  33 S2     3s     ( 0.2251)  37 S2     3px    (-0.1280)  66 O3     2s     (-0.2141)
                72 O3     2py    ( 0.1330) 158 NP4    4f3-   (-0.5876) 182 NP4    4f3+   (-0.1728) 235 O6     2s     (-0.3513)
               265 O7     2s     ( 0.3976) 295 O8     2s     ( 0.3720) 352 H11    1s     (-0.1141)
         49    0.0000    2.0000                                                                                                           
                33 S2     3s     ( 0.2134)  37 S2     3px    (-0.2172) 158 NP4    4f3-   ( 0.6794) 182 NP4    4f3+   ( 0.3206)
               235 O6     2s     (-0.2910) 265 O7     2s     ( 0.2718) 295 O8     2s     ( 0.3022)
         50    0.0000    2.0000                                                                                                           
                41 S2     3py    (-0.2207)  72 O3     2py    ( 0.2456) 158 NP4    4f3-   (-0.3059) 182 NP4    4f3+   ( 0.7771)
               235 O6     2s     ( 0.2125) 238 O6     2px    ( 0.2003) 241 O6     2py    ( 0.1560)
         51    0.0000    2.0000                                                                                                           
                 5 C1     2px    ( 0.2914)   8 C1     2py    (-0.1093)  41 S2     3py    (-0.2863)  45 S2     3pz    (-0.1896)
                66 O3     2s     (-0.3586)  72 O3     2py    ( 0.3384) 158 NP4    4f3-   ( 0.2685) 182 NP4    4f3+   (-0.2925)
               235 O6     2s     ( 0.1815) 238 O6     2px    ( 0.2003) 241 O6     2py    ( 0.1817) 295 O8     2s     (-0.1506)
               338 H10    1s     ( 0.2497) 352 H11    1s     (-0.1778)
         52    0.0000    2.0000                                                                                                           
                 5 C1     2px    (-0.2345)   8 C1     2py    ( 0.2243)  11 C1     2pz    (-0.1456)  37 S2     3px    (-0.1704)
                41 S2     3py    (-0.1712)  45 S2     3pz    ( 0.3095)  66 O3     2s     (-0.1484)  72 O3     2py    ( 0.2718)
               182 NP4    4f3+   (-0.3314) 235 O6     2s     ( 0.3276) 238 O6     2px    ( 0.2211) 241 O6     2py    ( 0.1542)
               295 O8     2s     ( 0.1085) 324 H9     1s     ( 0.1977) 338 H10    1s     (-0.2269) 352 H11    1s     ( 0.1072)
      
         53    0.0000    2.0000                                                                                                           
                 5 C1     2px    ( 0.1649)   8 C1     2py    (-0.1172)  11 C1     2pz    (-0.3816)  33 S2     3s     ( 0.1304)
                45 S2     3pz    ( 0.4649)  75 O3     2pz    ( 0.2201) 182 NP4    4f3+   ( 0.1046) 235 O6     2s     (-0.1938)
               238 O6     2px    (-0.1584) 244 O6     2pz    ( 0.2300) 338 H10    1s     ( 0.3215)
         54    0.0000    2.0000                                                                                                           
                 5 C1     2px    (-0.1062)  37 S2     3px    ( 0.3366)  41 S2     3py    (-0.1666)  52 S2     3d0    (-0.1047)
                66 O3     2s     (-0.1843)  69 O3     2px    (-0.2671)  72 O3     2py    ( 0.2012)  75 O3     2pz    (-0.1533)
               107 NP4    5px    ( 0.2584) 115 NP4    5py    (-0.1718) 130 NP4    5d2-   ( 0.3570) 235 O6     2s     (-0.2604)
               238 O6     2px    (-0.3589) 241 O6     2py    ( 0.1020) 244 O6     2pz    (-0.2508) 274 O7     2pz    ( 0.1630)
               304 O8     2pz    (-0.1262) 338 H10    1s     (-0.1133) 367 O12    2s     (-0.1250)
         55    0.0000    2.0000                                                                                                           
                69 O3     2px    (-0.1948) 107 NP4    5px    ( 0.2827) 115 NP4    5py    (-0.2233) 130 NP4    5d2-   ( 0.1103)
               205 O5     2s     ( 0.4915) 241 O6     2py    ( 0.1899) 244 O6     2pz    ( 0.1942) 367 O12    2s     ( 0.5169)
      
         56    0.0000    2.0000                                                                                                           
                75 O3     2pz    ( 0.2633) 123 NP4    5pz    (-0.6432) 130 NP4    5d2-   (-0.1105) 205 O5     2s     ( 0.1627)
               244 O6     2pz    (-0.5013) 265 O7     2s     ( 0.1940) 295 O8     2s     (-0.2267) 304 O8     2pz    ( 0.1083)
               367 O12    2s     ( 0.1652)
         57    0.0000    2.0000                                                                                                           
                11 C1     2pz    (-0.2351)  45 S2     3pz    ( 0.2461)  52 S2     3d0    (-0.1079)  69 O3     2px    ( 0.1528)
                75 O3     2pz    (-0.7089) 107 NP4    5px    (-0.1844) 130 NP4    5d2-   (-0.2166) 154 NP4    5d2+   ( 0.1235)
               205 O5     2s     ( 0.2169) 241 O6     2py    (-0.1288) 244 O6     2pz    (-0.1921) 367 O12    2s     ( 0.1737)
      
         58    0.0000    2.0000                                                                                                           
                75 O3     2pz    ( 0.3455) 123 NP4    5pz    ( 0.6225) 244 O6     2pz    (-0.5946) 265 O7     2s     (-0.1518)
               295 O8     2s     ( 0.1332)
         59    0.0000    2.0000                                                                                                           
                75 O3     2pz    (-0.1036) 107 NP4    5px    ( 0.5971) 115 NP4    5py    ( 0.7471) 154 NP4    5d2+   (-0.1265)
      
         60    0.0000    2.0000                                                                                                           
                37 S2     3px    (-0.2025)  41 S2     3py    ( 0.1294)  45 S2     3pz    ( 0.1193)  72 O3     2py    (-0.1292)
                75 O3     2pz    (-0.1534) 107 NP4    5px    ( 0.5637) 115 NP4    5py    (-0.5589) 130 NP4    5d2-   (-0.2102)
               142 NP4    5d0    (-0.1088) 205 O5     2s     (-0.2096) 238 O6     2px    ( 0.1666) 244 O6     2pz    (-0.1667)
               304 O8     2pz    ( 0.1149)
         61    0.0000    2.0000                                                                                                           
                37 S2     3px    ( 0.2862)  41 S2     3py    (-0.1818)  45 S2     3pz    (-0.1322)  66 O3     2s     (-0.1089)
                69 O3     2px    ( 0.1057)  72 O3     2py    ( 0.1916)  75 O3     2pz    ( 0.1828) 107 NP4    5px    ( 0.2713)
               130 NP4    5d2-   (-0.4532) 142 NP4    5d0    (-0.2069) 154 NP4    5d2+   ( 0.5302) 205 O5     2s     ( 0.1902)
               235 O6     2s     (-0.1084) 238 O6     2px    (-0.1839) 244 O6     2pz    ( 0.1711) 367 O12    2s     (-0.1615)
      
         62    0.0000    2.0000                                                                                                           
                37 S2     3px    ( 0.1408)  69 O3     2px    (-0.1615) 130 NP4    5d2-   (-0.6050) 154 NP4    5d2+   (-0.5788)
               205 O5     2s     (-0.1817) 238 O6     2px    (-0.1039) 268 O7     2px    ( 0.1307) 274 O7     2pz    ( 0.1083)
               298 O8     2px    ( 0.1502) 301 O8     2py    (-0.1083) 304 O8     2pz    (-0.1210) 367 O12    2s     ( 0.2455)
      
         63    0.0000    2.0000                                                                                                           
                37 S2     3px    (-0.1997)  41 S2     3py    ( 0.1399)  72 O3     2py    (-0.1441) 130 NP4    5d2-   (-0.1805)
               142 NP4    5d0    ( 0.4096) 143 NP4    6d0    (-0.2130) 154 NP4    5d2+   ( 0.3268) 241 O6     2py    ( 0.1962)
               268 O7     2px    ( 0.2254) 274 O7     2pz    ( 0.3785) 298 O8     2px    ( 0.1707) 304 O8     2pz    (-0.3660)
               367 O12    2s     (-0.1454)
         64    0.0000    2.0000                                                                                                           
                69 O3     2px    (-0.3542) 100 NP4    6s     (-0.1349) 130 NP4    5d2-   (-0.1721) 143 NP4    6d0    ( 0.2354)
               154 NP4    5d2+   ( 0.3169) 205 O5     2s     (-0.2598) 238 O6     2px    (-0.1185) 241 O6     2py    ( 0.3097)
               268 O7     2px    ( 0.1461) 271 O7     2py    (-0.1059) 274 O7     2pz    (-0.3344) 298 O8     2px    ( 0.1677)
               301 O8     2py    (-0.1304) 304 O8     2pz    ( 0.3357) 367 O12    2s     ( 0.1034)
         65    0.0000    2.0000                                                                                                           
               130 NP4    5d2-   ( 0.1759) 142 NP4    5d0    (-0.8406) 268 O7     2px    ( 0.1789) 274 O7     2pz    ( 0.1883)
               298 O8     2px    ( 0.2085) 304 O8     2pz    (-0.1633)
         66    0.0000    2.0000                                                                                                           
                69 O3     2px    (-0.2538) 107 NP4    5px    (-0.1651) 108 NP4    6px    ( 0.2024) 130 NP4    5d2-   (-0.2469)
               142 NP4    5d0    (-0.1968) 154 NP4    5d2+   (-0.1622) 175 NP4    5f1+   (-0.1560) 205 O5     2s     ( 0.3340)
               241 O6     2py    ( 0.2871) 268 O7     2px    (-0.3188) 298 O8     2px    (-0.3791) 367 O12    2s     (-0.4298)
      
         67    0.0000    2.0000                                                                                                           
                75 O3     2pz    ( 0.1440) 124 NP4    6pz    ( 0.1108) 148 NP4    5d1+   (-0.4679) 149 NP4    6d1+   ( 0.1990)
               268 O7     2px    ( 0.5209) 271 O7     2py    (-0.1127) 274 O7     2pz    (-0.1579) 298 O8     2px    (-0.4818)
               304 O8     2pz    (-0.1241)
         68    0.0000    2.0000                                                                                                           
               136 NP4    5d1-   (-0.6843) 137 NP4    6d1-   ( 0.1783) 148 NP4    5d1+   (-0.2011) 271 O7     2py    ( 0.4901)
               301 O8     2py    (-0.3513)
         69    0.0000    2.0000                                                                                                           
               115 NP4    5py    (-0.1075) 116 NP4    6py    ( 0.1649) 130 NP4    5d2-   ( 0.1127) 167 NP4    5f1-   (-0.2367)
               205 O5     2s     ( 0.1377) 241 O6     2py    (-0.1664) 271 O7     2py    (-0.5116) 301 O8     2py    (-0.6411)
               367 O12    2s     (-0.2562)
         70    0.0000    2.0000                                                                                                           
               123 NP4    5pz    (-0.1006) 136 NP4    5d1-   ( 0.4570) 148 NP4    5d1+   (-0.5687) 149 NP4    6d1+   (-0.1005)
               171 NP4    5f0    ( 0.1597) 268 O7     2px    (-0.2779) 271 O7     2py    ( 0.1797) 274 O7     2pz    (-0.1831)
               298 O8     2px    ( 0.2727) 301 O8     2py    (-0.1872) 304 O8     2pz    (-0.2099)
         71    0.0000    2.0000                                                                                                           
               124 NP4    6pz    (-0.1944) 136 NP4    5d1-   (-0.1963) 148 NP4    5d1+   (-0.6281) 171 NP4    5f0    (-0.2307)
               271 O7     2py    (-0.1718) 274 O7     2pz    ( 0.2908) 298 O8     2px    ( 0.1383) 301 O8     2py    ( 0.2168)
               304 O8     2pz    ( 0.3455)
         72    0.0000    2.0000                                                                                                           
                69 O3     2px    (-0.2157) 116 NP4    6py    (-0.1017) 136 NP4    5d1-   (-0.1225) 154 NP4    5d2+   ( 0.2665)
               175 NP4    5f1+   (-0.1458) 205 O5     2s     (-0.4857) 241 O6     2py    (-0.1575) 268 O7     2px    (-0.4002)
               271 O7     2py    (-0.1177) 274 O7     2pz    ( 0.1431) 298 O8     2px    (-0.3276) 304 O8     2pz    (-0.1663)
               367 O12    2s     ( 0.4367)
         73    0.0000    2.0000                                                                                                           
               124 NP4    6pz    ( 0.1969) 136 NP4    5d1-   (-0.5019) 137 NP4    6d1-   (-0.1236) 171 NP4    5f0    ( 0.2290)
               268 O7     2px    (-0.1034) 271 O7     2py    (-0.3125) 274 O7     2pz    (-0.3238) 298 O8     2px    ( 0.2391)
               301 O8     2py    ( 0.3025) 304 O8     2pz    (-0.2698)
         74    0.0000    2.0000                                                                                                           
               100 NP4    6s     ( 0.9820) 108 NP4    6px    ( 0.1007)
         75    0.0000    2.0000                                                                                                           
                69 O3     2px    (-0.5354) 108 NP4    6px    ( 0.2342) 116 NP4    6py    ( 0.3859) 154 NP4    5d2+   ( 0.1186)
               205 O5     2s     ( 0.1143) 238 O6     2px    ( 0.1799) 241 O6     2py    (-0.5075) 271 O7     2py    ( 0.1240)
               367 O12    2s     (-0.1201)
         76    0.0000    2.0000                                                                                                           
               108 NP4    6px    (-0.1128) 205 O5     2s     (-0.1398) 208 O5     2px    (-0.4001) 211 O5     2py    (-0.5136)
               367 O12    2s     (-0.1460) 370 O12    2px    ( 0.4500) 373 O12    2py    ( 0.4115)
         77    0.0000    2.0000                                                                                                           
               100 NP4    6s     ( 0.1909) 108 NP4    6px    (-0.6979) 116 NP4    6py    ( 0.6421) 205 O5     2s     ( 0.1113)
               238 O6     2px    (-0.1184) 241 O6     2py    ( 0.1959)
         78    0.0000    2.0000                                                                                                           
                69 O3     2px    ( 0.3300) 108 NP4    6px    ( 0.6396) 116 NP4    6py    ( 0.6162) 205 O5     2s     (-0.2132)
               238 O6     2px    (-0.1033) 241 O6     2py    ( 0.2579) 271 O7     2py    (-0.1012) 298 O8     2px    (-0.1049)
               367 O12    2s     ( 0.1905)
         79    0.0000    2.0000                                                                                                           
               123 NP4    5pz    (-0.1297) 124 NP4    6pz    (-0.9186) 171 NP4    5f0    ( 0.4953) 214 O5     2pz    (-0.1217)
               265 O7     2s     ( 0.2165) 274 O7     2pz    (-0.2050) 295 O8     2s     (-0.2184) 304 O8     2pz    (-0.2098)
               376 O12    2pz    (-0.1560)
         80    0.0000    2.0000                                                                                                           
               100 NP4    6s     (-0.1281) 116 NP4    6py    ( 0.1840) 208 O5     2px    (-0.4213) 211 O5     2py    ( 0.3177)
               370 O12    2px    (-0.4805) 373 O12    2py    ( 0.5052)
         81    0.0000    2.0000                                                                                                           
               124 NP4    6pz    (-0.2547) 171 NP4    5f0    ( 0.1613) 214 O5     2pz    ( 0.5265) 274 O7     2pz    (-0.1128)
               304 O8     2pz    (-0.1127) 376 O12    2pz    ( 0.6934)
         82    0.0000    1.9956                                                                                                           
               155 NP4    6d2+   ( 0.1251) 208 O5     2px    (-0.6497) 211 O5     2py    ( 0.5370) 370 O12    2px    ( 0.4899)
               373 O12    2py    (-0.4936)
         83    0.0000    1.0197                                                                                                           
               179 NP4    5f2+   ( 0.1598) 214 O5     2pz    ( 0.8615) 376 O12    2pz    (-0.7229)
         84    0.0000    0.6154                                                                                                           
               159 NP4    5f3-   (-0.8832) 183 NP4    5f3+   (-0.4624)
         85    0.0000    0.5280                                                                                                           
               179 NP4    5f2+   ( 0.9837) 214 O5     2pz    (-0.1634) 376 O12    2pz    ( 0.1386)
         86    0.0000    0.4801                                                                                                           
               163 NP4    5f2-   ( 0.9960)
         87    0.0000    0.3610                                                                                                           
               159 NP4    5f3-   ( 0.4600) 183 NP4    5f3+   (-0.8751)
         88    0.0000    0.0001                                                                                                           
               131 NP4    6d2-   (-0.1142) 160 NP4    6f3-   ( 0.1394) 167 NP4    5f1-   ( 0.6488) 175 NP4    5f1+   (-0.6849)
               268 O7     2px    ( 0.1855) 271 O7     2py    (-0.1717) 298 O8     2px    ( 0.1882) 301 O8     2py    (-0.1782)
      
         89    0.0000    0.0000                                                                                                           
                69 O3     2px    ( 0.1280) 109 NP4    7px    (-0.1477) 155 NP4    6d2+   (-0.9890) 156 NP4    7d2+   ( 0.1400)
               160 NP4    6f3-   ( 0.1195) 167 NP4    5f1-   ( 0.2415) 175 NP4    5f1+   ( 0.1931) 184 NP4    6f3+   (-0.1117)
               205 O5     2s     ( 0.1642) 208 O5     2px    (-0.1787) 211 O5     2py    ( 0.2706) 367 O12    2s     (-0.1148)
               370 O12    2px    ( 0.2672)
         90    0.0000    0.0000                                                                                                           
               100 NP4    6s     (-0.1126) 124 NP4    6pz    ( 0.6377) 125 NP4    7pz    ( 0.2622) 160 NP4    6f3-   (-0.1135)
               164 NP4    6f2-   (-0.5984) 165 NP4    7f2-   (-0.1654) 171 NP4    5f0    ( 0.4394) 209 O5     3px    (-0.2420)
               212 O5     3py    ( 0.1831) 215 O5     3pz    (-0.3760) 244 O6     2pz    (-0.1036) 265 O7     2s     (-0.2289)
               274 O7     2pz    ( 0.3876) 295 O8     2s     ( 0.2620) 296 O8     3s     ( 0.1085) 298 O8     2px    (-0.1121)
               304 O8     2pz    ( 0.4417) 305 O8     3pz    ( 0.1240) 373 O12    2py    (-0.1824) 377 O12    3pz    (-0.2503)
      
         91    0.0000    0.0000                                                                                                           
               100 NP4    6s     (-0.1481) 117 NP4    7py    (-0.1099) 124 NP4    6pz    (-0.2201) 131 NP4    6d2-   (-0.2456)
               143 NP4    6d0    (-0.1387) 156 NP4    7d2+   ( 0.1040) 160 NP4    6f3-   (-0.2852) 164 NP4    6f2-   ( 0.2589)
               171 NP4    5f0    (-0.1422) 175 NP4    5f1+   ( 0.1292) 180 NP4    6f2+   ( 0.1090) 184 NP4    6f3+   ( 0.1654)
               205 O5     2s     ( 0.1576) 209 O5     3px    (-0.5322) 211 O5     2py    (-0.2171) 212 O5     3py    ( 0.3624)
               215 O5     3pz    ( 0.2487) 225 O5     3d2+   ( 0.1609) 268 O7     2px    (-0.1009) 274 O7     2pz    (-0.1771)
               304 O8     2pz    (-0.1108) 367 O12    2s     (-0.2239) 368 O12    3s     (-0.1216) 371 O12    3px    (-0.1775)
               373 O12    2py    (-0.4169) 377 O12    3pz    ( 0.1036) 387 O12    3d2+   (-0.1553)
         92    0.0000    0.0000                                                                                                           
               123 NP4    5pz    (-0.1163) 124 NP4    6pz    (-0.7142) 125 NP4    7pz    (-0.3058) 126 NP4    8pz    ( 0.1582)
               149 NP4    6d1+   (-0.2017) 171 NP4    5f0    (-0.5206) 180 NP4    6f2+   (-0.5855) 181 NP4    7f2+   (-0.1661)
               214 O5     2pz    ( 0.1179) 215 O5     3pz    (-0.4275) 265 O7     2s     ( 0.4581) 266 O7     3s     ( 0.1989)
               268 O7     2px    ( 0.1323) 274 O7     2pz    (-0.4717) 275 O7     3pz    (-0.1502) 295 O8     2s     (-0.4602)
               296 O8     3s     (-0.1990) 298 O8     2px    (-0.1178) 304 O8     2pz    (-0.4589) 305 O8     3pz    (-0.1536)
      
         93    0.0000    0.0000                                                                                                           
                75 O3     2pz    ( 0.1420) 123 NP4    5pz    ( 0.1177) 124 NP4    6pz    ( 0.6832) 125 NP4    7pz    ( 0.2405)
               126 NP4    8pz    (-0.1971) 137 NP4    6d1-   (-0.2178) 149 NP4    6d1+   ( 0.1200) 164 NP4    6f2-   ( 0.3868)
               165 NP4    7f2-   ( 0.1002) 171 NP4    5f0    ( 0.4921) 180 NP4    6f2+   (-0.6261) 181 NP4    7f2+   (-0.1752)
               265 O7     2s     (-0.4836) 266 O7     3s     (-0.2243) 271 O7     2py    ( 0.1361) 274 O7     2pz    ( 0.4456)
               275 O7     3pz    ( 0.1635) 295 O8     2s     ( 0.4627) 296 O8     3s     ( 0.2099) 301 O8     2py    (-0.1207)
               304 O8     2pz    ( 0.4384) 305 O8     3pz    ( 0.1558) 377 O12    3pz    ( 0.3090)
         94    0.0000    0.0000                                                                                                           
               124 NP4    6pz    ( 0.2707) 125 NP4    7pz    ( 0.1223) 137 NP4    6d1-   (-0.1054) 149 NP4    6d1+   ( 0.1458)
               164 NP4    6f2-   ( 0.5867) 165 NP4    7f2-   ( 0.1785) 171 NP4    5f0    ( 0.1417) 180 NP4    6f2+   ( 0.2667)
               214 O5     2pz    ( 0.1090) 215 O5     3pz    (-0.3836) 219 O5     3d1-   ( 0.1737) 223 O5     3d1+   ( 0.1634)
               244 O6     2pz    ( 0.1298) 265 O7     2s     (-0.1513) 274 O7     2pz    ( 0.1505) 295 O8     2s     ( 0.1427)
               304 O8     2pz    ( 0.1361) 376 O12    2pz    ( 0.2953) 377 O12    3pz    (-0.1684) 378 O12    4pz    ( 0.1050)
               381 O12    3d1-   (-0.1539) 385 O12    3d1+   (-0.1690)
         95    0.0000    0.0000                                                                                                           
               101 NP4    7s     (-0.1680) 109 NP4    7px    (-0.1229) 117 NP4    7py    (-0.1227) 156 NP4    7d2+   ( 0.1772)
               160 NP4    6f3-   (-0.1324) 184 NP4    6f3+   ( 0.3928) 205 O5     2s     ( 0.3892) 206 O5     3s     ( 0.1030)
               208 O5     2px    (-0.5831) 209 O5     3px    (-0.3398) 210 O5     4px    (-0.1796) 211 O5     2py    (-0.2675)
               213 O5     4py    ( 0.1202) 217 O5     3d2-   (-0.1356) 225 O5     3d2+   (-0.1433) 229 O5     4f1-   ( 0.1381)
               231 O5     4f1+   (-0.1038) 367 O12    2s     (-0.3392) 370 O12    2px    (-0.3476) 371 O12    3px    ( 0.4220)
               373 O12    2py    (-0.3863) 374 O12    3py    (-0.5214) 387 O12    3d2+   ( 0.1930)
         96    0.0000    0.0000                                                                                                           
                41 S2     3py    (-0.1081)  73 O3     3py    (-0.1049) 109 NP4    7px    ( 0.2298) 110 NP4    8px    (-0.2376)
               117 NP4    7py    ( 0.1514) 118 NP4    8py    (-0.2103) 155 NP4    6d2+   ( 0.1748) 156 NP4    7d2+   (-0.1221)
               167 NP4    5f1-   ( 0.5528) 169 NP4    7f1-   (-0.2630) 175 NP4    5f1+   ( 0.5050) 177 NP4    7f1+   (-0.3025)
               184 NP4    6f3+   ( 0.1194) 205 O5     2s     (-0.1726) 206 O5     3s     (-0.1012) 268 O7     2px    (-0.1109)
               271 O7     2py    (-0.1357) 298 O8     2px    (-0.1291) 301 O8     2py    (-0.1589)
         97    0.0000    0.0000                                                                                                           
               117 NP4    7py    ( 0.1865) 156 NP4    7d2+   (-0.1318) 160 NP4    6f3-   ( 0.2203) 184 NP4    6f3+   (-0.3407)
               205 O5     2s     ( 0.4046) 208 O5     2px    (-0.2844) 209 O5     3px    ( 0.4001) 210 O5     4px    ( 0.1706)
               211 O5     2py    (-0.5769) 212 O5     3py    (-0.2635) 227 O5     4f3-   ( 0.1408) 231 O5     4f1+   ( 0.1637)
               367 O12    2s     (-0.4411) 368 O12    3s     (-0.1128) 370 O12    2px    (-0.5118) 371 O12    3px    (-0.1949)
               373 O12    2py    (-0.4172) 374 O12    3py    ( 0.4358) 383 O12    3d0    (-0.1165)
         98    0.0000    0.0000                                                                                                           
                 2 C1     2s     ( 0.4040)   3 C1     3s     ( 0.2281)  33 S2     3s     ( 0.3727)  34 S2     4s     ( 0.2178)
                37 S2     3px    ( 0.1422)  66 O3     2s     (-0.1569)  99 NP4    5s     (-0.2816) 100 NP4    6s     (-0.8743)
               101 NP4    7s     (-1.2317) 102 NP4    8s     ( 0.3343) 109 NP4    7px    (-0.1402) 110 NP4    8px    ( 0.1818)
               116 NP4    6py    ( 0.1028) 117 NP4    7py    ( 0.2101) 118 NP4    8py    (-0.2081) 131 NP4    6d2-   ( 0.2148)
               144 NP4    7d0    (-0.5960) 145 NP4    8d0    ( 0.6235) 169 NP4    7f1-   (-0.2407) 177 NP4    7f1+   ( 0.2070)
               194 NP4    5g0    (-0.2690) 195 NP4    6g0    (-0.1270) 202 NP4    5g4+   ( 0.1026) 205 O5     2s     ( 0.3128)
               206 O5     3s     ( 0.1617) 212 O5     3py    ( 0.1310) 235 O6     2s     (-0.1702) 264 O7     1s     ( 0.1078)
               265 O7     2s     ( 0.5460) 266 O7     3s     ( 0.4224) 269 O7     3px    (-0.1058) 272 O7     3py    ( 0.1064)
               275 O7     3pz    (-0.3060) 294 O8     1s     ( 0.1242) 295 O8     2s     ( 0.6611) 296 O8     3s     ( 0.4864)
               304 O8     2pz    ( 0.1441) 305 O8     3pz    ( 0.3431) 338 H10    1s     (-0.3303) 339 H10    2s     (-0.1814)
               367 O12    2s     ( 0.2704) 368 O12    3s     ( 0.1413) 370 O12    2px    (-0.1651) 371 O12    3px    (-0.1957)
               374 O12    3py    ( 0.1168)
         99    0.0000    0.0000                                                                                                           
                75 O3     2pz    (-0.1517)  76 O3     3pz    (-0.1023) 137 NP4    6d1-   (-0.2945) 149 NP4    6d1+   (-0.2186)
               180 NP4    6f2+   ( 0.5317) 181 NP4    7f2+   ( 0.1438) 192 NP4    5g1-   ( 0.1549) 196 NP4    5g1+   ( 0.1295)
               214 O5     2pz    (-0.4297) 215 O5     3pz    (-1.0214) 216 O5     4pz    (-0.2804) 230 O5     4f0    ( 0.2740)
               268 O7     2px    ( 0.1326) 271 O7     2py    ( 0.1782) 298 O8     2px    (-0.1297) 301 O8     2py    (-0.1795)
               376 O12    2pz    ( 0.3516) 377 O12    3pz    ( 1.0586) 378 O12    4pz    ( 0.2385) 392 O12    4f0    (-0.1669)
      
        100    0.0000    0.0000                                                                                                           
                 1 C1     1s     (-0.1098)   2 C1     2s     (-0.6304)   3 C1     3s     (-0.3383)   5 C1     2px    (-0.1435)
                 8 C1     2py    ( 0.1018)  32 S2     2s     (-0.1912)  33 S2     3s     (-0.7649)  34 S2     4s     (-0.4792)
                37 S2     3px    (-0.2814)  38 S2     4px    (-0.1383)  41 S2     3py    ( 0.2027)  42 S2     4py    ( 0.1112)
                45 S2     3pz    (-0.2124)  46 S2     4pz    (-0.1774)  52 S2     3d0    ( 0.1190)  69 O3     2px    (-0.1712)
                70 O3     3px    (-0.1481)  72 O3     2py    ( 0.2296)  73 O3     3py    ( 0.2574)  99 NP4    5s     ( 0.2155)
               100 NP4    6s     ( 0.6335) 101 NP4    7s     ( 0.8095) 103 NP4    9s     (-0.1624) 108 NP4    6px    (-0.3879)
               109 NP4    7px    (-0.8886) 110 NP4    8px    ( 0.2949) 116 NP4    6py    ( 0.3056) 117 NP4    7py    ( 0.6780)
               118 NP4    8py    (-0.3147) 131 NP4    6d2-   ( 0.3762) 132 NP4    7d2-   (-0.2913) 133 NP4    8d2-   (-0.1273)
               143 NP4    6d0    ( 0.2912) 144 NP4    7d0    ( 0.1409) 145 NP4    8d0    (-0.5396) 160 NP4    6f3-   (-0.1018)
               169 NP4    7f1-   (-0.5009) 176 NP4    6f1+   ( 0.2039) 177 NP4    7f1+   ( 0.5328) 194 NP4    5g0    ( 0.1222)
               202 NP4    5g4+   ( 0.1079) 205 O5     2s     ( 0.4690) 206 O5     3s     ( 0.1902) 208 O5     2px    (-0.2894)
               209 O5     3px    (-0.2405) 211 O5     2py    ( 0.1460) 212 O5     3py    ( 0.2259) 238 O6     2px    (-0.2428)
               239 O6     3px    (-0.2587) 265 O7     2s     (-0.4866) 266 O7     3s     (-0.3293) 269 O7     3px    (-0.1653)
               272 O7     3py    ( 0.1598) 274 O7     2pz    ( 0.2524) 275 O7     3pz    ( 0.3230) 295 O8     2s     (-0.4440)
               296 O8     3s     (-0.3181) 299 O8     3px    (-0.2100) 302 O8     3py    ( 0.2093) 304 O8     2pz    (-0.2294)
               305 O8     3pz    (-0.3148) 338 H10    1s     ( 0.4536) 339 H10    2s     ( 0.2070) 341 H10    2px    (-0.1279)
               367 O12    2s     ( 0.3394) 368 O12    3s     ( 0.1390) 370 O12    2px    (-0.3035) 371 O12    3px    (-0.1955)
               373 O12    2py    ( 0.1301)
        101    0.0000    0.0000                                                                                                           
                 2 C1     2s     ( 0.2249) 124 NP4    6pz    ( 0.1267) 125 NP4    7pz    ( 0.2797) 126 NP4    8pz    (-0.1065)
               137 NP4    6d1-   (-0.8162) 138 NP4    7d1-   (-0.3128) 139 NP4    8d1-   (-0.1087) 149 NP4    6d1+   ( 0.1653)
               188 NP4    5g3-   (-0.1059) 192 NP4    5g1-   ( 0.6109) 193 NP4    6g1-   (-0.6918) 196 NP4    5g1+   (-0.1153)
               197 NP4    6g1+   ( 0.1404) 215 O5     3pz    ( 0.1817) 265 O7     2s     (-0.1268) 271 O7     2py    ( 0.4056)
               272 O7     3py    ( 0.3646) 279 O7     3d1-   (-0.1988) 280 O7     4d1-   (-0.1236) 295 O8     2s     ( 0.1185)
               299 O8     3px    ( 0.1001) 301 O8     2py    (-0.4046) 302 O8     3py    (-0.3667) 309 O8     3d1-   (-0.1994)
               310 O8     4d1-   (-0.1239) 338 H10    1s     (-0.2751) 341 H10    2px    ( 0.1266) 376 O12    2pz    (-0.1456)
               377 O12    3pz    (-0.3314)
        102    0.0000    0.0000                                                                                                           
                 2 C1     2s     (-0.2814)   3 C1     3s     (-0.1258)   5 C1     2px    (-0.1147) 124 NP4    6pz    (-0.1519)
               125 NP4    7pz    (-0.2109) 137 NP4    6d1-   (-0.1630) 138 NP4    7d1-   (-0.1125) 149 NP4    6d1+   (-0.7941)
               150 NP4    7d1+   (-0.2995) 151 NP4    8d1+   (-0.1007) 192 NP4    5g1-   ( 0.1112) 193 NP4    6g1-   (-0.1188)
               196 NP4    5g1+   ( 0.6098) 197 NP4    6g1+   (-0.7213) 200 NP4    5g3+   ( 0.1457) 214 O5     2pz    ( 0.1466)
               215 O5     3pz    ( 0.3344) 216 O5     4pz    ( 0.1006) 265 O7     2s     ( 0.1495) 268 O7     2px    ( 0.3978)
               269 O7     3px    ( 0.3581) 283 O7     3d1+   (-0.2019) 284 O7     4d1+   (-0.1256) 295 O8     2s     (-0.1495)
               298 O8     2px    (-0.4148) 299 O8     3px    (-0.3844) 313 O8     3d1+   (-0.2047) 314 O8     4d1+   (-0.1275)
               338 H10    1s     ( 0.3394) 339 H10    2s     ( 0.1160) 341 H10    2px    (-0.1275) 376 O12    2pz    (-0.1204)
               377 O12    3pz    (-0.2692)
        103    0.0000    0.0000                                                                                                           
                 2 C1     2s     (-0.2614)   3 C1     3s     (-0.1159)   5 C1     2px    (-0.1417)   8 C1     2py    ( 0.1117)
                75 O3     2pz    ( 0.1179) 123 NP4    5pz    (-0.1107) 124 NP4    6pz    (-0.7265) 125 NP4    7pz    (-1.3467)
               126 NP4    8pz    ( 0.5713) 127 NP4    9pz    ( 0.1669) 137 NP4    6d1-   ( 0.1176) 138 NP4    7d1-   (-0.1555)
               149 NP4    6d1+   (-0.2718) 150 NP4    7d1+   ( 0.1310) 164 NP4    6f2-   ( 0.1816) 172 NP4    6f0    ( 0.2147)
               173 NP4    7f0    (-0.3558) 192 NP4    5g1-   ( 0.1608) 196 NP4    5g1+   (-0.1416) 197 NP4    6g1+   (-0.1005)
               244 O6     2pz    ( 0.1582) 264 O7     1s     ( 0.1155) 265 O7     2s     ( 0.7730) 266 O7     3s     ( 0.4225)
               268 O7     2px    ( 0.1719) 269 O7     3px    ( 0.1307) 274 O7     2pz    (-0.1032) 275 O7     3pz    (-0.1100)
               294 O8     1s     (-0.1080) 295 O8     2s     (-0.7367) 296 O8     3s     (-0.4103) 298 O8     2px    (-0.1638)
               299 O8     3px    (-0.1706) 302 O8     3py    ( 0.1050) 304 O8     2pz    (-0.1113) 305 O8     3pz    (-0.1024)
               338 H10    1s     ( 0.2745) 339 H10    2s     ( 0.1213) 341 H10    2px    (-0.1023)
        104    0.0000    0.0000                                                                                                           
                56 S2     3d2+   (-0.1587)  66 O3     2s     ( 0.2080)  69 O3     2px    ( 0.1846)  70 O3     3px    ( 0.1461)
                72 O3     2py    (-0.1340)  73 O3     3py    (-0.1813) 108 NP4    6px    ( 0.1903) 109 NP4    7px    ( 0.6130)
               110 NP4    8px    (-0.2093) 116 NP4    6py    ( 0.2391) 117 NP4    7py    ( 0.7287) 118 NP4    8py    (-0.2752)
               143 NP4    6d0    (-0.1231) 155 NP4    6d2+   (-0.1740) 160 NP4    6f3-   (-0.2175) 167 NP4    5f1-   (-0.1056)
               175 NP4    5f1+   (-0.1273) 183 NP4    5f3+   ( 0.1159) 184 NP4    6f3+   ( 0.4868) 205 O5     2s     (-0.2177)
               208 O5     2px    ( 0.1478) 209 O5     3px    ( 0.1686) 211 O5     2py    (-0.2522) 212 O5     3py    (-0.2139)
               235 O6     2s     (-0.2051) 238 O6     2px    (-0.2110) 239 O6     3px    (-0.2197) 265 O7     2s     ( 0.1292)
               271 O7     2py    (-0.1188) 279 O7     3d1-   ( 0.1417) 283 O7     3d1+   ( 0.1357) 302 O8     3py    ( 0.1216)
               303 O8     4py    ( 0.1059) 309 O8     3d1-   (-0.1441) 313 O8     3d1+   (-0.1302) 367 O12    2s     ( 0.1928)
               368 O12    3s     ( 0.1041) 370 O12    2px    (-0.2177) 371 O12    3px    (-0.2191) 373 O12    2py    ( 0.1353)
               374 O12    3py    ( 0.1350)
        105    0.0000    0.0000                                                                                                           
                 2 C1     2s     ( 0.1527)  99 NP4    5s     ( 0.1205) 100 NP4    6s     ( 0.3797) 101 NP4    7s     ( 0.1917)
               102 NP4    8s     (-0.1770) 109 NP4    7px    (-0.3223) 110 NP4    8px    (-0.1108) 117 NP4    7py    ( 0.2056)
               131 NP4    6d2-   (-0.1621) 143 NP4    6d0    ( 0.2627) 145 NP4    8d0    (-0.1100) 155 NP4    6d2+   (-0.1708)
               169 NP4    7f1-   ( 0.1993) 176 NP4    6f1+   ( 0.2180) 177 NP4    7f1+   (-0.2356) 186 NP4    5g4-   ( 0.1881)
               194 NP4    5g0    ( 0.2077) 199 NP4    6g2+   ( 0.1082) 205 O5     2s     ( 0.1871) 209 O5     3px    (-0.1813)
               211 O5     2py    ( 0.1923) 212 O5     3py    ( 0.2638) 217 O5     3d2-   ( 0.2160) 221 O5     3d0    ( 0.4163)
               222 O5     4d0    ( 0.1377) 265 O7     2s     (-0.3094) 266 O7     3s     (-0.1611) 271 O7     2py    (-0.1121)
               274 O7     2pz    ( 0.2022) 275 O7     3pz    ( 0.1718) 279 O7     3d1-   ( 0.1102) 295 O8     2s     (-0.2074)
               296 O8     3s     (-0.1031) 301 O8     2py    (-0.1338) 304 O8     2pz    (-0.1791) 305 O8     3pz    (-0.1558)
               309 O8     3d1-   (-0.1176) 338 H10    1s     (-0.1887) 368 O12    3s     (-0.3433) 370 O12    2px    ( 0.1051)
               371 O12    3px    ( 0.3605) 374 O12    3py    (-0.1279) 383 O12    3d0    (-0.3110)
        106    0.0000    0.0000                                                                                                           
                 2 C1     2s     (-0.1151) 100 NP4    6s     ( 0.2247) 101 NP4    7s     ( 0.1892) 102 NP4    8s     (-0.1479)
               124 NP4    6pz    (-0.5992) 125 NP4    7pz    (-0.8831) 126 NP4    8pz    ( 0.2897) 127 NP4    9pz    ( 0.1596)
               137 NP4    6d1-   (-0.5261) 138 NP4    7d1-   ( 0.1758) 139 NP4    8d1-   ( 0.2083) 143 NP4    6d0    ( 0.1837)
               150 NP4    7d1+   (-0.2085) 151 NP4    8d1+   (-0.1106) 171 NP4    5f0    (-0.1398) 173 NP4    7f0    (-0.3209)
               192 NP4    5g1-   (-0.3324) 193 NP4    6g1-   (-0.7852) 197 NP4    6g1+   ( 0.1026) 230 O5     4f0    ( 0.1019)
               244 O6     2pz    (-0.1345) 265 O7     2s     ( 0.4149) 266 O7     3s     ( 0.2362) 271 O7     2py    ( 0.5346)
               272 O7     3py    ( 0.5550) 294 O8     1s     (-0.1310) 295 O8     2s     (-0.8283) 296 O8     3s     (-0.4515)
               301 O8     2py    (-0.4800) 302 O8     3py    (-0.5400) 304 O8     2pz    (-0.2577) 305 O8     3pz    (-0.1974)
               324 H9     1s     ( 0.1221) 338 H10    1s     ( 0.1148) 339 H10    2s     ( 0.1413) 376 O12    2pz    ( 0.2857)
               377 O12    3pz    ( 0.4422)
        107    0.0000    0.0000                                                                                                           
                 2 C1     2s     (-0.5349)   3 C1     3s     (-0.3230)  33 S2     3s     (-0.1336)  45 S2     3pz    (-0.1295)
                46 S2     4pz    (-0.1004)  69 O3     2px    (-0.1327)  70 O3     3px    (-0.1011)  72 O3     2py    ( 0.1058)
                73 O3     3py    ( 0.1319)  99 NP4    5s     ( 0.2737) 100 NP4    6s     ( 0.9680) 101 NP4    7s     ( 1.3792)
               102 NP4    8s     (-0.6471) 103 NP4    9s     ( 0.1742) 108 NP4    6px    (-0.1809) 109 NP4    7px    (-0.4133)
               117 NP4    7py    ( 0.1964) 124 NP4    6pz    (-0.2890) 125 NP4    7pz    (-0.3988) 126 NP4    8pz    ( 0.1855)
               131 NP4    6d2-   ( 0.1514) 137 NP4    6d1-   ( 0.1092) 142 NP4    5d0    ( 0.1621) 143 NP4    6d0    ( 1.0807)
               144 NP4    7d0    ( 0.3743) 145 NP4    8d0    (-0.1815) 149 NP4    6d1+   ( 0.3296) 150 NP4    7d1+   (-0.1086)
               151 NP4    8d1+   (-0.1382) 169 NP4    7f1-   ( 0.1038) 173 NP4    7f0    (-0.2032) 194 NP4    5g0    (-0.2617)
               195 NP4    6g0    ( 0.5150) 196 NP4    5g1+   ( 0.2380) 197 NP4    6g1+   ( 0.4738) 205 O5     2s     ( 0.1073)
               214 O5     2pz    ( 0.1885) 215 O5     3pz    ( 0.3195) 264 O7     1s     (-0.1341) 265 O7     2s     (-0.8135)
               266 O7     3s     (-0.4169) 268 O7     2px    (-0.2571) 269 O7     3px    (-0.3087) 271 O7     2py    (-0.1448)
               272 O7     3py    (-0.1157) 274 O7     2pz    ( 0.3243) 276 O7     4pz    (-0.1548) 281 O7     3d0    (-0.1266)
[...]
      7f1+     0.0000  0.0000  0.0000  0.5668  0.0000  0.0000  0.0000  0.0000  0.0000  0.0000  0.0000  0.0000
      7f0      0.0000  0.0000  0.0000  0.3405  0.0000  0.0000  0.0000  0.0000  0.0000  0.0000  0.0000  0.0000
      7f1-     0.0000  0.0000  0.0000  0.4537  0.0000  0.0000  0.0000  0.0000  0.0000  0.0000  0.0000  0.0000
      7f2-     0.0000  0.0000  0.0000  0.2483  0.0000  0.0000  0.0000  0.0000  0.0000  0.0000  0.0000  0.0000
      7f3-     0.0000  0.0000  0.0000  0.3881  0.0000  0.0000  0.0000  0.0000  0.0000  0.0000  0.0000  0.0000
      8s       0.0000  0.0000  0.0000  0.2748  0.0000  0.0000  0.0000  0.0000  0.0000  0.0000  0.0000  0.0000
      8px      0.0000  0.0000  0.0000  0.4730  0.0000  0.0000  0.0000  0.0000  0.0000  0.0000  0.0000  0.0000
      8pz      0.0000  0.0000  0.0000  0.3093  0.0000  0.0000  0.0000  0.0000  0.0000  0.0000  0.0000  0.0000
      8py      0.0000  0.0000  0.0000  0.4165  0.0000  0.0000  0.0000  0.0000  0.0000  0.0000  0.0000  0.0000
      8d2+     0.0000  0.0000  0.0000  0.3913  0.0000  0.0000  0.0000  0.0000  0.0000  0.0000  0.0000  0.0000
      8d1+     0.0000  0.0000  0.0000  0.4545  0.0000  0.0000  0.0000  0.0000  0.0000  0.0000  0.0000  0.0000
      8d0      0.0000  0.0000  0.0000  0.5087  0.0000  0.0000  0.0000  0.0000  0.0000  0.0000  0.0000  0.0000
      8d1-     0.0000  0.0000  0.0000  0.3528  0.0000  0.0000  0.0000  0.0000  0.0000  0.0000  0.0000  0.0000
      8d2-     0.0000  0.0000  0.0000  0.5407  0.0000  0.0000  0.0000  0.0000  0.0000  0.0000  0.0000  0.0000
      9s       0.0000  0.0000  0.0000  0.6620  0.0000  0.0000  0.0000  0.0000  0.0000  0.0000  0.0000  0.0000
      9px      0.0000  0.0000  0.0000  0.5314  0.0000  0.0000  0.0000  0.0000  0.0000  0.0000  0.0000  0.0000
      9pz      0.0000  0.0000  0.0000  0.5361  0.0000  0.0000  0.0000  0.0000  0.0000  0.0000  0.0000  0.0000
      9py      0.0000  0.0000  0.0000  0.4083  0.0000  0.0000  0.0000  0.0000  0.0000  0.0000  0.0000  0.0000
      Total   12.4490 13.6362 11.0579 48.5666 13.0172 10.8939 11.5882 10.8794  6.6336  6.5875  7.3737 14.3166
 
      N-E     -6.4490  2.3638 -3.0579 44.4334 -5.0172 -2.8939 -3.5882 -2.8794 -5.6336 -5.5875 -6.3737 -6.3166
 
      Total electronic charge=  167.000000
 
      Total            charge=   -1.000000
--
 
 

      Expectation values of various properties for root number:  1
      -----------------------------------------------------------
 
 
++    Molecular properties:
      ---------------------
 
      Charge (e):
                      =   -1.0000
      Dipole Moment (Debye):
      Origin of the operator (Ang)=    0.0000    0.0000    0.0000
                   X=  2.7382E+02               Y= -1.4690E+02               Z=  2.4808E+02           Total=  3.9762E+02
      Center of Charge (Ang)
                     X=  -57.00863162               Y=   30.58463268               Z=  -51.64849405
      Quadrupole Moment (Debye*Ang):
      Origin of the operator (Ang)=   -0.3452    0.2003   -0.1039
                  XX= -1.5949E+03              XY=  6.9346E+02              XZ= -6.2191E+02              YY= -1.0967E+03
                  YZ=  4.2057E+02              ZZ= -1.1079E+03
      In traceless form (Debye*Ang)
                  XX= -4.9254E+02              XY=  1.0402E+03              XZ= -9.3287E+02              YY=  2.5468E+02
                  YZ=  6.3085E+02              ZZ=  2.3787E+02
--
 

      Mulliken spin population analysis for root number:  1
      ---------------------------------------------------
 
 
++    Molecular charges:
      ------------------
 
      Mulliken spin population per centre and basis function type
      ---------------------------------------------------
 
                C1      S2      O3      NP4     O5      O6      O7      O8      H9      H10     H11     O12   
      1s       0.0482  0.0004  0.0052  0.0000  0.0087  0.0070  0.0110  0.0010  0.0029  0.0024  0.0012  0.0060
      2s      -0.0088  0.0167 -0.0049  0.0000  0.0198  0.0013  0.0011  0.0049  0.0026  0.0244 -0.0000  0.0447
      2px     -0.0131  0.0002  0.0033  0.0000 -0.0018  0.0048  0.0010  0.0009  0.0283  0.0096 -0.0016  0.0044
      2pz      0.0047  0.0025  0.0083  0.0000 -0.0000  0.0166 -0.0012  0.0033  0.0222  0.0556 -0.0012 -0.0000
      2py     -0.0023  0.0068  0.0192  0.0000  0.0018 -0.0020 -0.0052 -0.0007  0.0337  0.0133  0.0231  0.0076
      3s      -0.0125 -0.0042  0.0032 -0.0001  0.0052  0.0017  0.0055 -0.0084 -0.0041  0.0027  0.0103 -0.0028
      3px      0.0174 -0.0078 -0.0063  0.0010 -0.0167  0.0010  0.0034  0.0075  0.0114 -0.0014  0.0198  0.0180
      3pz     -0.0041 -0.0017  0.0154  0.0004 -0.0032  0.0099 -0.0152  0.0010  0.0045  0.0095  0.0143 -0.0012
      3py      0.0002 -0.0051 -0.0006  0.0018 -0.0104  0.0016  0.0155  0.0026  0.0162  0.0114  0.0245  0.0436
      4s       0.0085  0.0208  0.0102  0.0064  0.0073  0.0096  0.0135  0.0124  0.0000  0.0000  0.0000  0.0015
      3d2+     0.0036 -0.0006  0.0160  0.0002  0.0173 -0.0003  0.0001  0.0066  0.0062  0.0210  0.0071  0.0137
      3d1+    -0.0013  0.0379  0.0026  0.0000  0.0152  0.0216  0.0063  0.0014  0.0123  0.0129  0.0086  0.0089
      3d0     -0.0108  0.0058  0.0216  0.0001  0.0210  0.0091  0.0156  0.0186  0.0146  0.0329  0.0062 -0.0010
      3d1-     0.0004  0.0061  0.0101  0.0000 -0.0021  0.0047  0.0041  0.0043  0.0013  0.0085  0.0155  0.0098
      3d2-     0.0018  0.0190  0.0115  0.0006  0.0083  0.0348  0.0115  0.0019  0.0193  0.0051  0.0027  0.0000
      4px      0.0592 -0.0023  0.0084  0.0119 -0.0103  0.0055  0.0216  0.0011  0.0000  0.0000  0.0000 -0.0058
      4pz      0.0037  0.0024  0.0129  0.0035 -0.0010 -0.0110  0.0683  0.0128  0.0000  0.0000  0.0000  0.0025
      4py      0.0055  0.0356  0.0373  0.0121  0.0174  0.0136  0.0056  0.0008  0.0000  0.0000  0.0000  0.0257
      5s       0.0000 -0.0047  0.0000  0.0143  0.0000  0.0000  0.0000  0.0000  0.0000  0.0000  0.0000  0.0000
      4d2+     0.0011  0.0055 -0.0006  0.0131  0.0204  0.0058  0.0158  0.0083  0.0000  0.0000  0.0000  0.0006
      4d1+    -0.0116 -0.0015  0.0063  0.0152  0.0156  0.0153  0.0204  0.0044  0.0000  0.0000  0.0000 -0.0033
      4d0     -0.0064  0.0033 -0.0005  0.0068 -0.0071  0.0114  0.0091  0.0160  0.0000  0.0000  0.0000  0.0198
      4d1-     0.0140  0.0347  0.0064  0.0058  0.0110  0.0096  0.0036  0.0045  0.0000  0.0000  0.0000 -0.0013
      4d2-    -0.0002  0.0121  0.0120  0.0119  0.0003  0.0121  0.0031 -0.0025  0.0000  0.0000  0.0000 -0.0037
      5px      0.0000 -0.0023  0.0000 -0.0014  0.0000  0.0000  0.0000  0.0000  0.0000  0.0000  0.0000  0.0000
      5pz      0.0000  0.0311  0.0000  0.0170  0.0000  0.0000  0.0000  0.0000  0.0000  0.0000  0.0000  0.0000
      5py      0.0000  0.0050  0.0000  0.0009  0.0000  0.0000  0.0000  0.0000  0.0000  0.0000  0.0000  0.0000
      6s       0.0000  0.0000  0.0000  0.0139  0.0000  0.0000  0.0000  0.0000  0.0000  0.0000  0.0000  0.0000
      4f3+     0.0140 -0.0008  0.0079  0.0131  0.0054  0.0074  0.0042  0.0023  0.0000  0.0000  0.0000  0.0110
      4f2+     0.0109  0.0121  0.0096  0.0243  0.0075  0.0112  0.0088  0.0080  0.0000  0.0000  0.0000  0.0069
      4f1+     0.0088  0.0033  0.0067  0.0093  0.0023  0.0211  0.0278  0.0240  0.0000  0.0000  0.0000  0.0114
      4f0      0.0000 -0.0003  0.0076  0.0254  0.0030  0.0016  0.0059  0.0076  0.0000  0.0000  0.0000  0.0275
      4f1-    -0.0045  0.0062  0.0407  0.0080  0.0084  0.0006  0.0064  0.0044  0.0000  0.0000  0.0000  0.0079
      4f2-     0.0055  0.0128  0.0089  0.0028  0.0076  0.0048  0.0133  0.0001  0.0000  0.0000  0.0000  0.0072
      4f3-     0.0330  0.0178  0.0014  0.0043  0.0027  0.0125  0.0063  0.0089  0.0000  0.0000  0.0000  0.0129
      5d2+     0.0000  0.0000  0.0000  0.0004  0.0000  0.0000  0.0000  0.0000  0.0000  0.0000  0.0000  0.0000
      5d1+     0.0000  0.0000  0.0000  0.0045  0.0000  0.0000  0.0000  0.0000  0.0000  0.0000  0.0000  0.0000
      5d0      0.0000  0.0000  0.0000  0.0051  0.0000  0.0000  0.0000  0.0000  0.0000  0.0000  0.0000  0.0000
      5d1-     0.0000  0.0000  0.0000  0.0012  0.0000  0.0000  0.0000  0.0000  0.0000  0.0000  0.0000  0.0000
      5d2-     0.0000  0.0000  0.0000  0.0004  0.0000  0.0000  0.0000  0.0000  0.0000  0.0000  0.0000  0.0000
      6px      0.0000  0.0000  0.0000  0.0076  0.0000  0.0000  0.0000  0.0000  0.0000  0.0000  0.0000  0.0000
      6pz      0.0000  0.0000  0.0000 -0.0188  0.0000  0.0000  0.0000  0.0000  0.0000  0.0000  0.0000  0.0000
      6py      0.0000  0.0000  0.0000  0.0041  0.0000  0.0000  0.0000  0.0000  0.0000  0.0000  0.0000  0.0000
      7s       0.0000  0.0000  0.0000  0.0104  0.0000  0.0000  0.0000  0.0000  0.0000  0.0000  0.0000  0.0000
      5f3+     0.0000  0.0000  0.0000 -0.0001  0.0000  0.0000  0.0000  0.0000  0.0000  0.0000  0.0000  0.0000
      5f2+     0.0000  0.0000  0.0000 -0.0000  0.0000  0.0000  0.0000  0.0000  0.0000  0.0000  0.0000  0.0000
      5f1+     0.0000  0.0000  0.0000 -0.0006  0.0000  0.0000  0.0000  0.0000  0.0000  0.0000  0.0000  0.0000
      5f0      0.0000  0.0000  0.0000  0.0018  0.0000  0.0000  0.0000  0.0000  0.0000  0.0000  0.0000  0.0000
      5f1-     0.0000  0.0000  0.0000  0.0015  0.0000  0.0000  0.0000  0.0000  0.0000  0.0000  0.0000  0.0000
      5f2-     0.0000  0.0000  0.0000  0.0001  0.0000  0.0000  0.0000  0.0000  0.0000  0.0000  0.0000  0.0000
      5f3-     0.0000  0.0000  0.0000 -0.0000  0.0000  0.0000  0.0000  0.0000  0.0000  0.0000  0.0000  0.0000
      6d2+     0.0000  0.0000  0.0000  0.0003  0.0000  0.0000  0.0000  0.0000  0.0000  0.0000  0.0000  0.0000
      6d1+     0.0000  0.0000  0.0000  0.0038  0.0000  0.0000  0.0000  0.0000  0.0000  0.0000  0.0000  0.0000
      6d0      0.0000  0.0000  0.0000  0.0014  0.0000  0.0000  0.0000  0.0000  0.0000  0.0000  0.0000  0.0000
      6d1-     0.0000  0.0000  0.0000 -0.0015  0.0000  0.0000  0.0000  0.0000  0.0000  0.0000  0.0000  0.0000
      6d2-     0.0000  0.0000  0.0000  0.0045  0.0000  0.0000  0.0000  0.0000  0.0000  0.0000  0.0000  0.0000
      7px      0.0000  0.0000  0.0000  0.0028  0.0000  0.0000  0.0000  0.0000  0.0000  0.0000  0.0000  0.0000
      7pz      0.0000  0.0000  0.0000  0.0060  0.0000  0.0000  0.0000  0.0000  0.0000  0.0000  0.0000  0.0000
      7py      0.0000  0.0000  0.0000  0.0062  0.0000  0.0000  0.0000  0.0000  0.0000  0.0000  0.0000  0.0000
      5g4+     0.0000  0.0000  0.0000  0.0068  0.0000  0.0000  0.0000  0.0000  0.0000  0.0000  0.0000  0.0000
      5g3+     0.0000  0.0000  0.0000  0.0058  0.0000  0.0000  0.0000  0.0000  0.0000  0.0000  0.0000  0.0000
      5g2+     0.0000  0.0000  0.0000  0.0025  0.0000  0.0000  0.0000  0.0000  0.0000  0.0000  0.0000  0.0000
      5g1+     0.0000  0.0000  0.0000  0.0128  0.0000  0.0000  0.0000  0.0000  0.0000  0.0000  0.0000  0.0000
      5g0      0.0000  0.0000  0.0000  0.0029  0.0000  0.0000  0.0000  0.0000  0.0000  0.0000  0.0000  0.0000
      5g1-     0.0000  0.0000  0.0000  0.0122  0.0000  0.0000  0.0000  0.0000  0.0000  0.0000  0.0000  0.0000
      5g2-     0.0000  0.0000  0.0000  0.0053  0.0000  0.0000  0.0000  0.0000  0.0000  0.0000  0.0000  0.0000
      5g3-     0.0000  0.0000  0.0000  0.0064  0.0000  0.0000  0.0000  0.0000  0.0000  0.0000  0.0000  0.0000
      5g4-     0.0000  0.0000  0.0000  0.0030  0.0000  0.0000  0.0000  0.0000  0.0000  0.0000  0.0000  0.0000
      6f3+     0.0000  0.0000  0.0000  0.0014  0.0000  0.0000  0.0000  0.0000  0.0000  0.0000  0.0000  0.0000
      6f2+     0.0000  0.0000  0.0000 -0.0006  0.0000  0.0000  0.0000  0.0000  0.0000  0.0000  0.0000  0.0000
      6f1+     0.0000  0.0000  0.0000  0.0125  0.0000  0.0000  0.0000  0.0000  0.0000  0.0000  0.0000  0.0000
      6f0      0.0000  0.0000  0.0000  0.0378  0.0000  0.0000  0.0000  0.0000  0.0000  0.0000  0.0000  0.0000
      6f1-     0.0000  0.0000  0.0000  0.0031  0.0000  0.0000  0.0000  0.0000  0.0000  0.0000  0.0000  0.0000
      6f2-     0.0000  0.0000  0.0000  0.0097  0.0000  0.0000  0.0000  0.0000  0.0000  0.0000  0.0000  0.0000
      6f3-     0.0000  0.0000  0.0000 -0.0006  0.0000  0.0000  0.0000  0.0000  0.0000  0.0000  0.0000  0.0000
      6g4+     0.0000  0.0000  0.0000  0.0079  0.0000  0.0000  0.0000  0.0000  0.0000  0.0000  0.0000  0.0000
      6g3+     0.0000  0.0000  0.0000  0.0083  0.0000  0.0000  0.0000  0.0000  0.0000  0.0000  0.0000  0.0000
      6g2+     0.0000  0.0000  0.0000  0.0012  0.0000  0.0000  0.0000  0.0000  0.0000  0.0000  0.0000  0.0000
      6g1+     0.0000  0.0000  0.0000  0.0025  0.0000  0.0000  0.0000  0.0000  0.0000  0.0000  0.0000  0.0000
      6g0      0.0000  0.0000  0.0000  0.0018  0.0000  0.0000  0.0000  0.0000  0.0000  0.0000  0.0000  0.0000
      6g1-     0.0000  0.0000  0.0000  0.0032  0.0000  0.0000  0.0000  0.0000  0.0000  0.0000  0.0000  0.0000
      6g2-     0.0000  0.0000  0.0000  0.0334  0.0000  0.0000  0.0000  0.0000  0.0000  0.0000  0.0000  0.0000
      6g3-     0.0000  0.0000  0.0000  0.0023  0.0000  0.0000  0.0000  0.0000  0.0000  0.0000  0.0000  0.0000
      6g4-     0.0000  0.0000  0.0000  0.0052  0.0000  0.0000  0.0000  0.0000  0.0000  0.0000  0.0000  0.0000
      7d2+     0.0000  0.0000  0.0000  0.0023  0.0000  0.0000  0.0000  0.0000  0.0000  0.0000  0.0000  0.0000
      7d1+     0.0000  0.0000  0.0000 -0.0003  0.0000  0.0000  0.0000  0.0000  0.0000  0.0000  0.0000  0.0000
      7d0      0.0000  0.0000  0.0000  0.0045  0.0000  0.0000  0.0000  0.0000  0.0000  0.0000  0.0000  0.0000
      7d1-     0.0000  0.0000  0.0000  0.0204  0.0000  0.0000  0.0000  0.0000  0.0000  0.0000  0.0000  0.0000
      7d2-     0.0000  0.0000  0.0000  0.0115  0.0000  0.0000  0.0000  0.0000  0.0000  0.0000  0.0000  0.0000
      7f3+     0.0000  0.0000  0.0000  0.0051  0.0000  0.0000  0.0000  0.0000  0.0000  0.0000  0.0000  0.0000
      7f2+     0.0000  0.0000  0.0000 -0.0013  0.0000  0.0000  0.0000  0.0000  0.0000  0.0000  0.0000  0.0000
      7f1+     0.0000  0.0000  0.0000  0.0075  0.0000  0.0000  0.0000  0.0000  0.0000  0.0000  0.0000  0.0000
      7f0      0.0000  0.0000  0.0000 -0.0148  0.0000  0.0000  0.0000  0.0000  0.0000  0.0000  0.0000  0.0000
      7f1-     0.0000  0.0000  0.0000  0.0165  0.0000  0.0000  0.0000  0.0000  0.0000  0.0000  0.0000  0.0000
      7f2-     0.0000  0.0000  0.0000 -0.0039  0.0000  0.0000  0.0000  0.0000  0.0000  0.0000  0.0000  0.0000
      7f3-     0.0000  0.0000  0.0000 -0.0007  0.0000  0.0000  0.0000  0.0000  0.0000  0.0000  0.0000  0.0000
      8s       0.0000  0.0000  0.0000  0.0279  0.0000  0.0000  0.0000  0.0000  0.0000  0.0000  0.0000  0.0000
      8px      0.0000  0.0000  0.0000  0.0195  0.0000  0.0000  0.0000  0.0000  0.0000  0.0000  0.0000  0.0000
      8pz      0.0000  0.0000  0.0000  0.0111  0.0000  0.0000  0.0000  0.0000  0.0000  0.0000  0.0000  0.0000
      8py      0.0000  0.0000  0.0000 -0.0033  0.0000  0.0000  0.0000  0.0000  0.0000  0.0000  0.0000  0.0000
      8d2+     0.0000  0.0000  0.0000  0.0045  0.0000  0.0000  0.0000  0.0000  0.0000  0.0000  0.0000  0.0000
      8d1+     0.0000  0.0000  0.0000 -0.0004  0.0000  0.0000  0.0000  0.0000  0.0000  0.0000  0.0000  0.0000
      8d0      0.0000  0.0000  0.0000  0.0141  0.0000  0.0000  0.0000  0.0000  0.0000  0.0000  0.0000  0.0000
      8d1-     0.0000  0.0000  0.0000  0.0356  0.0000  0.0000  0.0000  0.0000  0.0000  0.0000  0.0000  0.0000
      8d2-     0.0000  0.0000  0.0000  0.0088  0.0000  0.0000  0.0000  0.0000  0.0000  0.0000  0.0000  0.0000
      9s       0.0000  0.0000  0.0000 -0.0046  0.0000  0.0000  0.0000  0.0000  0.0000  0.0000  0.0000  0.0000
      9px      0.0000  0.0000  0.0000  0.0293  0.0000  0.0000  0.0000  0.0000  0.0000  0.0000  0.0000  0.0000
      9pz      0.0000  0.0000  0.0000  0.0210  0.0000  0.0000  0.0000  0.0000  0.0000  0.0000  0.0000  0.0000
      9py      0.0000  0.0000  0.0000  0.0033  0.0000  0.0000  0.0000  0.0000  0.0000  0.0000  0.0000  0.0000
      Total    0.1649  0.2669  0.2799  0.6643  0.1536  0.2429  0.2870  0.1581  0.1713  0.2080  0.1306  0.2726
 
      Total electronic spin=    3.000000
--
 
 

      LoProp population analysis for root number:  1
      -----------------------------------------------
 
 
++    LoProp analysis:
      ----------------
 
 
 
  Input file to MOLDEN was generated!
 
 
++    Static properties:
      ------------------
 
 
      LoProp Charges per center
 

                   C1       S2       O3       NP4      O5       O6       O7       O8       H9       H10   
      Nuclear      6.0000  16.0000   8.0000  93.0000   8.0000   8.0000   8.0000   8.0000   1.0000   1.0000
      Electronic -12.8610 -13.6426 -11.1570 -47.5514 -13.4879 -10.7918 -12.1126 -11.4260  -6.3745  -6.5004
 
      Total       -6.8610   2.3574  -3.1570  45.4486  -5.4879  -2.7918  -4.1126  -3.4260  -5.3745  -5.5004
 

                   H11      O12   
      Nuclear      1.0000   8.0000
      Electronic  -7.2740 -13.8207
 
      Total       -6.2740  -5.8207
--
 
 
      Natural Bond Order analysis for root number:  1
 
++    Natural Bond Order analysis
      ---------------------------
      Based on LoProp computed density
      -------------------------------------------------------------------------------------
      Atom A       Atom B       Bond Order | Atom A       Atom B       Bond Order
        O5           O12            2.688  |   O3           NP4            0.847
        NP4          O7             3.386  |   NP4          O6             0.843
        NP4          O5             1.711  |   NP4          O8             1.676
        S2           NP4            2.466  |   NP4          O12            3.235
      -------------------------------------------------------------------------------------
      NBO located      2.000 core electrons.
      NBO located     13.679 lone pair electrons.
      NBO located     33.706 electrons involved in    8 bonds.
      NBO located      1.020 non-bonded electrons on atom C1        
      NBO located      0.976 non-bonded electrons on atom C1        
      NBO located      0.946 non-bonded electrons on atom S2        
      NBO located      0.946 non-bonded electrons on atom S2        
      NBO located      0.910 non-bonded electrons on atom NP4       
      NBO located      0.910 non-bonded electrons on atom NP4       
      NBO located      0.951 non-bonded electrons on atom NP4       
      NBO located      1.003 non-bonded electrons on atom O6        
      NBO located      0.928 non-bonded electrons on atom O8        
      NBO located      0.970 non-bonded electrons on atom H9        
      NBO located      0.972 non-bonded electrons on atom H10       
      NBO located      0.922 non-bonded electrons on atom H10       
      The remaining  106.162 electrons are to be considered as diffuse
--
 
--
 
 
  Input file to MOLDEN was generated!
 
 
  Input file to MOLDEN was generated!
 
      Average orbitals are written to the RASORB file
      Natural orbitals for root   1 are written to the RASORB.1 file
      Spin density orbitals for root   1 are written to the SPDORB.1 file
 
--- Stop Module: rasscf at Fri Dec 14 17:38:22 2018 /rc=_RC_ALL_IS_WELL_ ---
*** files: NpO2_CH3SO2_O2-m1-doublet.dump_SOOrb-2.VTZ.LprOrb NpO2_CH3SO2_O2-m1-doublet.dump_SOOrb-2.VTZ.rasscf.molden.1 NpO2_CH3SO2_O2-m1-doublet.dump_SOOrb-2.VTZ.rasscf.molden
           NpO2_CH3SO2_O2-m1-doublet.dump_SOOrb-2.VTZ.LoProp.molden NpO2_CH3SO2_O2-m1-doublet.dump_SOOrb-2.VTZ.RasOrb NpO2_CH3SO2_O2-m1-doublet.dump_SOOrb-2.VTZ.RasOrb.1
           NpO2_CH3SO2_O2-m1-doublet.dump_SOOrb-2.VTZ.rasscf.h5 NpO2_CH3SO2_O2-m1-doublet.dump_SOOrb-2.VTZ.SpdOrb.1 xmldump
    saved to directory /home/vallet/John-methylsulfonyl/NpO2_CH3SO2_O2-m1/doublet-geom/optg-freq-pbe0-superoxo/SO-XMS/NaturalOrbitals-openmolcas
--- Module rasscf spent 7 minutes 52 seconds ---

>>> COPY NpO2_CH3SO2_O2-m1-doublet.dump_SOOrb-2.VTZ.rasscf.molden /home/vallet/John-methylsulfonyl/NpO2_CH3SO2_O2-m1/doublet-geom/optg-freq-pbe0-superoxo/SO-XMS/NaturalOrbitals-openmolcas/NpO2_CH3SO2_O2-m1-doublet.dump_SOOrb.VTZ.SODSOrb.Z.Z1.molden

    Timing: Wall=1372.96 User=9075.65 System=302.63
