   This run of MOLCAS is using the pymolcas driver

                             OPE
                             OPE          NMOL  CASOP  ENMOLC A   SO
                 OPE        NMOLC        AS  OP EN  MO LC     AS  OP
                OPENM       OL CA        SO  PE NM  OL CA     SOP EN
                OP EN      MO   LC       AS  OP ENMOL  CASO   PENMOL
                OP  EN     MO   LC       AS  OP EN     MO     LC ASO
               OP   E  NMOL  C  AS       OP  EN MO     LC     AS  OP
               OP  E   NMO   LC AS        OPEN  MO     LCASOP EN   M
               O  PEN   MO  LCA  SO
            OPE   NMO   L   CAS    OP
        OPENMOL  CASOP     ENMOL   CASOPE
     OPENMOLCA   SOPENMOLCASOPEN   MOLCASOPE
    OPENMOLCAS   OP           EN   MOL    CAS
    OPENMOLCAS       OP  ENM        O     LCA
    OPENMOLCAS    OPEN  MOLCASO     P  E  NMO
    OPENMOLCAS     OP               E  N  MOL
    OPENMOLCA   SO           PENM   O  L  CAS    OPEN    MO    LCAS
    OPENMOLCA   SOP           ENM   O  L  CAS   OP  EN  MOLC  AS   O
    OPENMOLCA   SOPE           NM      O  LCA   S      OP  EN MO
    OPENMOLC                AS         O  PEN   M      OL  CA  SOPE
    OPENMO        LCASOPE  NMOL        C  ASO   P      ENMOLC     AS
    OPE     NMO      LCA  SO     P     E   NM   OL  CA SO  PE N   MO
          OPENMOLCA            SOPE   NMO        LCAS  O    P  ENMO
     OPENMOLCASOPENMOLCASOPENMOLCASOPENMOLCA
        OPENMOLCASOPENMOLCASOPENMOLCASOPE
            OPENMOLCASOPENMOLCASOPENM
               OPENMOLCASOPENMOLCA        version: 18.09
                   OPENMOLCASO
                       OPE                tag: 50-g6d6e5e5-dirty

 OpenMolcas is free software; you can redistribute it and/or modify it
 under the terms of the GNU Lesser General Public License version 2.1.
 OpenMolcas is distributed in the hope that it will be useful, but it
 is provided "as is" and without any express or implied warranties.
 For more details see the full text of the license in the file
 LICENSE or in <http://www.gnu.org/licenses/>.

                 Copyright (C) The OpenMolcas Authors
           For the author list and the recommended citation,
                   consult the file CONTRIBUTORS.md

           *************************************************
           * pymolcas version py2.04                       *
           *   build 3b3f1139d1f9af0cd96dc01c0ce9d5c0      *
           *   (after the EMIL interpreter by V. Veryazov) *
           *************************************************

configuration info
------------------
C Compiler ID: Intel
C flags: -std=gnu99 -qopenmp
Fortran Compiler ID: Intel
Fortran flags: -fpp -i8 -r8 -heap-arrays -qopenmp
Definitions: _MOLCAS_;_I8_;_LINUX_;_MKL_;_FDE_
Parallel: OFF (GA=OFF)


   -------------------------------------------------------------------------------------------------------
  |
  |           Project: NpO2_C6H5SO2_OH-m1-triplet.casscf.MB
  |    Submitted from: /home/vallet/John-methylsulfonyl/NpO2_C6H5SO2_OH-m1/optg-freq-pbe0/SO-XMS
  |      Scratch area: /state/partition2/vallet/499029.phlam-s-sakura/NpO2_C6H5SO2_OH-m1-triplet.casscf.MB
  |   Save outputs to: /home/vallet/John-methylsulfonyl/NpO2_C6H5SO2_OH-m1/optg-freq-pbe0/SO-XMS
  |            Molcas: /home/pcmt/OpenMolcas/OpenMolcas-20181005
  |
  | Scratch area is empty
  |
  |    MOLCAS_DRIVER = /home/pcmt/OpenMolcas/OpenMolcas-20181005/sbin/pymolcas
  |   MOLCAS_LICENSE = /home/pcmt/molcas/license
  |    MOLCAS_MOLDEN = ON
  |    MOLCAS_NPROCS = 1
  |    MOLCAS_SOURCE = /home/pcmt/OpenMolcas/OpenMolcas-20181005
  | MOLCAS_STRUCTURE = 0
  |
   -------------------------------------------------------------------------------------------------------

++ ---------   Input file   ---------

&GATEWAY
   COORD=$HomeDir/NpO2_C6H5SO2_OH-m1-triplet.pbe0-zaxis.xyz
   BASIS=ANO-RCC-MB
   Group=Nosym
   ANGM=0.0 0.0 0.0
   RICD

>>> COPY $Project.RunFile $HomeDir

&SEWARD

&RASSCF
   Spin=3
   Symmetry=1
   Nactel=2 0 0
   Inactive=95
   Ras2=4
   CIRoots=6 6 1
   Lumorb

>>> COPY $Project.RasOrb $HomeDir/$Project.RasOrb_triplets

>>> COPY $Project.rasscf.molden $HomeDir/$Project.rasscf_triplets.molden

&RASSCF
   Spin=1
   Symmetry=1
   Nactel=2 0 0
   Inactive=95
   Ras2=4
   CIRoots=10 10 1
   Lumorb

>>> COPY $Project.RasOrb $HomeDir/$Project.RasOrb_singlets

>>> COPY $Project.rasscf.molden $HomeDir/$Project.rasscf_singlets.molden

-- ----------------------------------

--- Start Module: gateway at Fri Nov 16 15:30:41 2018 ---
 
()()()()()()()()()()()()()()()()()()()()()()()()()()()()()()()()()()()()()()()()()()()()()()()()()()

                                              &GATEWAY

                                   only a single process is used
                       available to each process: 16 GB of memory, 8 threads
()()()()()()()()()()()()()()()()()()()()()()()()()()()()()()()()()()()()()()()()()()()()()()()()()()
 
 
++    Symmetry information:
      ---------------------
 
                    Character Table for C1 
 
                             E  
                    a        1  x, y, xy, Rz, z, xz, Ry, yz, Rx, I
--
 
 
++    Basis set information:
      ----------------------
 
 
      Basis set label: C.ANO-RCC...2S1P.
 
      Electronic valence basis set:
      ------------------
      Associated Effective Charge   6.000000 au
      Associated Actual Charge      6.000000 au
      Nuclear Model: Point charge
 
      Shell  nPrim  nBasis  Cartesian Spherical Contaminant
         s      14       2        X                  
         p       9       1        X                  
 
 
      Basis set label: S.ANO-RCC...3S2P.
 
      Electronic valence basis set:
      ------------------
      Associated Effective Charge  16.000000 au
      Associated Actual Charge     16.000000 au
      Nuclear Model: Point charge
 
      Shell  nPrim  nBasis  Cartesian Spherical Contaminant
         s      17       3        X                  
         p      12       2        X                  
 
 
      Basis set label: O.ANO-RCC...2S1P.
 
      Electronic valence basis set:
      ------------------
      Associated Effective Charge   8.000000 au
      Associated Actual Charge      8.000000 au
      Nuclear Model: Point charge
 
      Shell  nPrim  nBasis  Cartesian Spherical Contaminant
         s      14       2        X                  
         p       9       1        X                  
 
 
      Basis set label: NP.ANO-RCC...7S6P4D2F.
 
      Electronic valence basis set:
      ------------------
      Associated Effective Charge  93.000000 au
      Associated Actual Charge     93.000000 au
      Nuclear Model: Point charge
 
      Shell  nPrim  nBasis  Cartesian Spherical Contaminant
         s      26       7        X                  
         p      23       6        X                  
         d      17       4                 X         
         f      13       2                 X         
 
 
      Basis set label: O.ANO-RCC...2S1P.
 
      Electronic valence basis set:
      ------------------
      Associated Effective Charge   8.000000 au
      Associated Actual Charge      8.000000 au
      Nuclear Model: Point charge
 
      Shell  nPrim  nBasis  Cartesian Spherical Contaminant
         s      14       2        X                  
         p       9       1        X                  
 
 
      Basis set label: H.ANO-RCC...1S.
 
      Electronic valence basis set:
      ------------------
      Associated Effective Charge   1.000000 au
      Associated Actual Charge      1.000000 au
      Nuclear Model: Point charge
 
      Shell  nPrim  nBasis  Cartesian Spherical Contaminant
         s       8       1        X                  
 
 
      Basis set label: O.ANO-RCC...2S1P.
 
      Electronic valence basis set:
      ------------------
      Associated Effective Charge   8.000000 au
      Associated Actual Charge      8.000000 au
      Nuclear Model: Point charge
 
      Shell  nPrim  nBasis  Cartesian Spherical Contaminant
         s      14       2        X                  
         p       9       1        X                  
 
 
      Basis set label: H.ANO-RCC...1S.
 
      Electronic valence basis set:
      ------------------
      Associated Effective Charge   1.000000 au
      Associated Actual Charge      1.000000 au
      Nuclear Model: Point charge
 
      Shell  nPrim  nBasis  Cartesian Spherical Contaminant
         s       8       1        X                  
--
 
 
++    Molecular structure info:
      -------------------------
 
                    ************************************************ 
                    **** Cartesian Coordinates / Bohr, Angstrom **** 
                    ************************************************ 
 
     Center  Label                x              y              z                     x              y              z
        1      C1               3.254316       9.365615      -3.529441              1.722110       4.956070      -1.867700
        2      C2               2.291992       6.945556      -3.285591              1.212870       3.675430      -1.738660
        3      C3               1.698486       5.508911      -5.402292              0.898800       2.915190      -2.858770
        4      C4               2.086579       6.535750      -7.779454              1.104170       3.458570      -4.116710
        5      C5               3.052853       8.967884      -8.043676              1.615500       4.745600      -4.256530
        6      C6               3.637836      10.385954      -5.919983              1.925060       5.496010      -3.132720
        7      S7               1.818049       5.698942      -0.114536              0.962070       3.015750      -0.060610
        8      O8               3.391019       3.266959      -0.171360              1.794450       1.728800      -0.090680
        9      NP9              0.000000       0.000000       0.000000              0.000000       0.000000       0.000000
       10      O10             -0.355061      -0.049832      -3.366301             -0.187890      -0.026370      -1.781370
       11      O11             -0.943767       4.892766      -0.155392             -0.499420       2.589140      -0.082230
       12      O12              1.177753      -4.002364      -0.003496              0.623240      -2.117960      -0.001850
       13      H13              1.594740      -4.648972       1.634953              0.843900      -2.460130       0.865180
       14      O14              0.000000       0.000000       3.381457              0.000000       0.000000       1.789390
       15      H15              0.947490       3.614158      -5.160143              0.501390       1.912530      -2.730630
       16      H16              1.634349       5.431054      -9.445210              0.864860       2.873990      -4.998190
       17      H17              3.349483       9.753821      -9.912974              1.772470       5.161500      -5.245720
       18      H18              4.391591      12.281066      -6.121503              2.323930       6.498860      -3.239360
       19      H19              3.702710      10.447181      -1.844713              1.959390       5.528410      -0.976180
 
                    ************************************************* 
                    **** InterNuclear Distances / Bohr, Angstrom **** 
                    ************************************************* 
 
     Atom centers         Bohr        Angstrom
   13 H13      12 O12     1.810109        0.957869
   16 H16       4 C4      2.049295        1.084440
   17 H17       5 C5      2.049381        1.084486
   18 H18       6 C6      2.049440        1.084517
   19 H19       1 C1      2.051622        1.085672
   15 H15       3 C3      2.052491        1.086132
    2 C2        1 C1      2.615763        1.384202
    4 C4        3 C3      2.618380        1.385587
    6 C6        5 C5      2.619771        1.386323
    3 C3        2 C2      2.626142        1.389695
    6 C6        1 C1      2.627331        1.390324
    5 C5        4 C4      2.630356        1.391925
   11 O11       7 S7      2.877363        1.522635
    8 O8        7 S7      2.896896        1.532971
   14 O14       9 NP9     3.381457        1.789390
   10 O10       9 NP9     3.385341        1.791446
    7 S7        2 C2      3.440096        1.820420
   19 H19       2 C2      4.040747        2.138271
   16 H16       3 C3      4.044176        2.140086
   15 H15       2 C2      4.052141        2.144301
   17 H17       6 C6      4.052989        2.144749
   18 H18       5 C5      4.057603        2.147191
   16 H16       5 C5      4.060249        2.148591
   17 H17       4 C4      4.062366        2.149711
   18 H18       1 C1      4.063500        2.150311
   19 H19       6 C6      4.076246        2.157057
   15 H15       4 C4      4.085831        2.162129
   12 O12       9 NP9     4.172054        2.207756
   15 H15      10 O10     4.282444        2.266172
    4 C4        2 C2      4.517183        2.390390
    5 C5        1 C1      4.536198        2.400452
    6 C6        2 C2      4.537362        2.401068
    6 C6        4 C4      4.548417        2.406919
    5 C5        3 C3      4.558038        2.412010
    3 C3        1 C1      4.560959        2.413556
   11 O11       8 O8      4.629673        2.449918
   17 H17      16 H16     4.674057        2.473404
   18 H18      17 H17     4.674206        2.473483
   19 H19      18 H18     4.704107        2.489306
   16 H16      15 H15     4.704752        2.489647
    9 NP9       8 O8      4.711835        2.493396
    8 O8        2 C2      4.943518        2.615997
   11 O11       2 C2      4.947952        2.618344
   11 O11       9 NP9     4.985378        2.638149
   13 H13       9 NP9     5.179692        2.740975
    7 S7        1 C1      5.212383        2.758274
   14 O14      13 H13     5.215976        2.760176
    5 C5        2 C2      5.225714        2.765329
    4 C4        1 C1      5.237782        2.771715
    6 C6        3 C3      5.273958        2.790858
    7 S7        3 C3      5.292520        2.800681
   14 O14      12 O12     5.372516        2.843013
   19 H19       7 S7      5.393629        2.854186
   12 O12      10 O10     5.411145        2.863455
   15 H15      11 O11     5.500838        2.910918
   15 H15       7 S7      5.528322        2.925462
   15 H15       8 O8      5.565908        2.945352
--
 
 
            Nuclear Potential Energy           2316.44789317 au
 
--- Stop Module: gateway at Fri Nov 16 15:31:56 2018 /rc=_RC_ALL_IS_WELL_ ---
*** files: NpO2_C6H5SO2_OH-m1-triplet.casscf.MB.RICDLib xmldump
    saved to directory /home/vallet/John-methylsulfonyl/NpO2_C6H5SO2_OH-m1/optg-freq-pbe0/SO-XMS
--- Module gateway spent 1 minute 14 seconds ---

>>> COPY NpO2_C6H5SO2_OH-m1-triplet.casscf.MB.RunFile /home/vallet/John-methylsulfonyl/NpO2_C6H5SO2_OH-m1/optg-freq-pbe0/SO-XMS

--- Start Module: seward at Fri Nov 16 15:31:56 2018 ---
 
()()()()()()()()()()()()()()()()()()()()()()()()()()()()()()()()()()()()()()()()()()()()()()()()()()

                                              &SEWARD

                                   only a single process is used
                       available to each process: 16 GB of memory, 8 threads
()()()()()()()()()()()()()()()()()()()()()()()()()()()()()()()()()()()()()()()()()()()()()()()()()()
 
               SEWARD will generate:
                  Multipole Moment integrals up to order  2
                  Kinetic Energy integrals
                  Nuclear Attraction integrals (point charge)
                  One-Electron Hamiltonian integrals
                  Velocity integrals
                  Relativistic Douglas-Kroll-Hess integrals:
                    - Parametrization         : EXP
                    - DKH order of Hamiltonian: 2
                    - DKH order of Properties : 0
                         - multipole moment operators
                         - electric potential operators
                         - contact operators
                  Orbital angular momentum around ( 0.0000  0.0000  0.0000 )
                  Atomic mean-field integrals
                  RI decomposed two-electron repulsion integrals stored Cholesky style
                   - acCD auxiliary basis
                   - CD Threshold:   0.10E-03
 
                   Integrals are discarded if absolute value <: 0.10E-13
                   Integral cutoff threshold is set to       <: 0.10E-15
 
            Nuclear Potential Energy           2316.44789317 au
 
 
      Basis set specifications :
      Symmetry species         a  
      Basis functions          129
 
 
  Input file to MOLDEN was generated!
 
--- Stop Module: seward at Fri Nov 16 15:32:22 2018 /rc=_RC_ALL_IS_WELL_ ---
*** files: NpO2_C6H5SO2_OH-m1-triplet.casscf.MB.GssOrb NpO2_C6H5SO2_OH-m1-triplet.casscf.MB.guessorb.h5 NpO2_C6H5SO2_OH-m1-triplet.casscf.MB.guessorb.molden xmldump
    saved to directory /home/vallet/John-methylsulfonyl/NpO2_C6H5SO2_OH-m1/optg-freq-pbe0/SO-XMS
--- Module seward spent 25 seconds ---

*** symbolic link created: INPORB -> NpO2_C6H5SO2_OH-m1-triplet.casscf.MB.GssOrb
--- Start Module: rasscf at Fri Nov 16 15:32:22 2018 ---
 
()()()()()()()()()()()()()()()()()()()()()()()()()()()()()()()()()()()()()()()()()()()()()()()()()()

                                              &RASSCF

                                   only a single process is used
                       available to each process: 16 GB of memory, 8 threads
()()()()()()()()()()()()()()()()()()()()()()()()()()()()()()()()()()()()()()()()()()()()()()()()()()
 
 
      Header of the ONEINT file:
      --------------------------
      
      Integrals generated by seward 4.2.0  , Fri Nov 16 15:31:57 2018
 
 
      OrdInt status: non-squared
 
 
      Cartesian coordinates in Angstrom:
      -----------------------------------------------------
      No.  Label        X            Y            Z        
      -----------------------------------------------------
       1   C1         1.72211000   4.95607000  -1.86770000
       2   C2         1.21287000   3.67543000  -1.73866000
       3   C3         0.89880000   2.91519000  -2.85877000
       4   C4         1.10417000   3.45857000  -4.11671000
       5   C5         1.61550000   4.74560000  -4.25653000
       6   C6         1.92506000   5.49601000  -3.13272000
       7   S7         0.96207000   3.01575000  -0.06061000
       8   O8         1.79445000   1.72880000  -0.09068000
       9   NP9        0.00000000   0.00000000   0.00000000
      10   O10       -0.18789000  -0.02637000  -1.78137000
      11   O11       -0.49942000   2.58914000  -0.08223000
      12   O12        0.62324000  -2.11796000  -0.00185000
      13   H13        0.84390000  -2.46013000   0.86518000
      14   O14        0.00000000   0.00000000   1.78939000
      15   H15        0.50139000   1.91253000  -2.73063000
      16   H16        0.86486000   2.87399000  -4.99819000
      17   H17        1.77247000   5.16150000  -5.24572000
      18   H18        2.32393000   6.49886000  -3.23936000
      19   H19        1.95939000   5.52841000  -0.97618000
      -----------------------------------------------------
      Nuclear repulsion energy = 2316.44789317
 
++    Wave function specifications:
      -----------------------------
 
      Number of closed shell electrons         190
      Number of electrons in active shells       2
      Max number of holes in RAS1 space          0
      Max nr of electrons in RAS3 space          0
      Number of inactive orbitals               95
      Number of active orbitals                  4
      Number of secondary orbitals              30
      Spin quantum number                      1.0
      State symmetry                             1
--
 
++    Orbital specifications:
      -----------------------
 
      Symmetry species                           1
                                                 a
      Frozen orbitals                            0
      Inactive orbitals                         95
      Active orbitals                            4
      RAS1 orbitals                              0
      RAS2 orbitals                              4
      RAS3 orbitals                              0
      Secondary orbitals                        30
      Deleted orbitals                           0
      Number of basis functions                129
--
 
++    CI expansion specifications:
      ----------------------------
 
      Number of CSFs                             6
      Number of determinants                     6
      Number of root(s) required                 6
      Root chosen for geometry opt.              6
      CI roots used                              1     2     3     4     5     6
      weights                                0.167 0.167 0.167 0.167 0.167 0.167
      highest root included in the CI            6
      max. size of the explicit Hamiltonian      6
--
 
++    Optimization specifications:
      ----------------------------
 
      RASSCF algorithm: LK RI/DF
      Maximum number of macro iterations       200
      Maximum number of SX iterations          100
      Threshold for RASSCF energy            0.100E-07
      Threshold for max MO rotation          0.100E+00
      Threshold for max BLB element          0.100E-03
      Level shift parameter                  0.500E+00
      Make Quasi-Newton update
--
 
      The MO-coefficients are taken from the file:
      INPORB                                                                                                                          
      Title:Guess orbitals                                                                 
 
      Total molecular charge   -1.00
 
      ************************************************************************************************************************
      *                                                                                                                      *
      *                                            Wave function control section                                             *
      *                                                                                                                      *
      ************************************************************************************************************************
 
 
                                         RASSCF iterations: Energy and convergence statistics
                                         ----------------------------------------------------
 
      Iter CI   SX   CI       RASSCF       Energy    max ROT     max BLB   max BLB  Level Ln srch  Step   QN   Walltime
          iter iter root      energy       change     param      element    value   shift minimum  type update hh:mm:ss
 Nr of preliminary CI iterations:   1
      Total energies have been shifted. Add               -29000.00 au
        1   1   11    0  -737.52204676    0.00E+00   0.99E-01   94  97 1 -0.53E+00*  1.96   0.00    SX    NO    0:00:04
        2   1   11    0  -738.39552599   -0.87E+00*  0.20E+00*  94  97 1 -0.27E+00*  1.64   0.00    SX    NO    0:00:01
        3   1   11    0  -738.90057002   -0.51E+00*  0.32E+00*  74 101 1  0.13E+00*  1.27   0.00    SX    NO    0:00:02
        4   1   12    0  -739.25358588   -0.35E+00*  0.24E+00*  97 101 1  0.13E+00*  1.01   0.00    SX    NO    0:00:02
        5   1   11    0  -739.45727197   -0.20E+00*  0.21E+00*  95  97 1 -0.10E+00*  0.86   2.41    QN   YES    0:00:02
        6   1   10    0  -739.61307526   -0.16E+00*  0.17E+00*  95  97 1 -0.14E+00*  0.74   2.08    QN   YES    0:00:01
        7   1   10    0  -739.71959682   -0.11E+00* -0.17E+00*  95  97 1 -0.16E+00*  0.64   2.08    QN   YES    0:00:01
        8   1   10    0  -739.80749605   -0.88E-01*  0.19E+00*  95  97 1 -0.15E+00*  0.56   2.15    QN   YES    0:00:02
        9   1   10    0  -739.89114922   -0.84E-01*  0.20E+00*  95 101 1 -0.13E+00*  0.51   2.06    QN   YES    0:00:02
       10   1   10    0  -739.96513163   -0.74E-01*  0.16E+00*  95 101 1 -0.17E+00*  0.49   1.76    QN   YES    0:00:02
       11   1   10    0  -740.02472625   -0.60E-01*  0.11E+00*  95 101 1 -0.16E+00*  0.49   1.75    QN   YES    0:00:01
       12   1   10    0  -740.08287090   -0.58E-01*  0.91E-01   95 101 1 -0.13E+00*  0.49   2.06    QN   YES    0:00:01
       13   1    9    0  -740.13714051   -0.54E-01*  0.65E-01   92  97 1 -0.79E-01*  0.49   1.99    LS   YES    0:00:02
       14   1    9    0  -740.15431222   -0.17E-01*  0.70E-01   92  97 1 -0.61E-01*  0.51   1.37    QN   YES    0:00:02
       15   1    9    0  -740.16896648   -0.15E-01*  0.58E-01   92  97 1 -0.35E-01*  0.49   2.03    LS   YES    0:00:02
       16   1    9    0  -740.17378096   -0.48E-02* -0.43E-01   92 101 1 -0.26E-01*  0.49   1.25    QN   YES    0:00:01
       17   1    9    0  -740.17925553   -0.55E-02* -0.50E-01   92 101 1 -0.23E-01*  0.50   1.62    QN   YES    0:00:01
       18   1    9    0  -740.18300555   -0.38E-02*  0.56E-01   92 101 1 -0.13E-01*  0.50   1.70    QN   YES    0:00:02
       19   1    9    0  -740.18510622   -0.21E-02*  0.81E-01   99 101 1 -0.81E-02*  0.50   2.01    QN   YES    0:00:02
       20   1    9    0  -740.18707257   -0.20E-02*  0.11E+00*  99 101 1 -0.81E-02*  0.50   2.19    QN   YES    0:00:02
       21   1    9    0  -740.18919531   -0.21E-02* -0.13E+00*  92 101 1  0.12E-01*  0.50   1.97    QN   YES    0:00:02
       22   1    9    0  -740.19112224   -0.19E-02* -0.11E+00*  92 101 1  0.16E-01*  0.49   1.77    QN   YES    0:00:02
       23   1    9    0  -740.19269580   -0.16E-02* -0.76E-01   92 101 1  0.15E-01*  0.49   1.83    QN   YES    0:00:02
       24   1    9    0  -740.19396348   -0.13E-02* -0.35E-01   92 101 1  0.10E-01*  0.50   1.74    QN   YES    0:00:02
       25   1    8    0  -740.19464344   -0.68E-03* -0.15E-01   92 101 1  0.45E-02*  0.50   1.50    QN   YES    0:00:01
       26   1    8    0  -740.19489274   -0.25E-03* -0.10E-01   80 101 1 -0.25E-02*  0.50   1.58    QN   YES    0:00:02
       27   1    8    0  -740.19500547   -0.11E-03* -0.82E-02   80 101 1 -0.14E-02*  0.50   1.57    QN   YES    0:00:02
       28   1    8    0  -740.19505865   -0.53E-04* -0.76E-02   92  97 1 -0.13E-02*  0.50   1.64    QN   YES    0:00:02
       29   1    8    0  -740.19509030   -0.32E-04* -0.70E-02   92  97 1 -0.11E-02*  0.50   1.71    QN   YES    0:00:02
       30   1    7    0  -740.19511102   -0.21E-04*  0.51E-02   80 101 1  0.73E-03*  0.50   1.65    QN   YES    0:00:02
       31   1    7    0  -740.19512314   -0.12E-04*  0.40E-02   80 101 1  0.58E-03*  0.50   1.66    QN   YES    0:00:02
       32   1    7    0  -740.19513011   -0.70E-05* -0.29E-02   95 101 1 -0.47E-03*  0.50   1.65    QN   YES    0:00:02
       33   1    7    0  -740.19513421   -0.41E-05* -0.20E-02   95 101 1 -0.43E-03*  0.50   1.59    QN   YES    0:00:02
       34   1    7    0  -740.19513641   -0.22E-05* -0.13E-02   95 101 1 -0.28E-03*  0.50   1.57    QN   YES    0:00:02
       35   1    6    0  -740.19513745   -0.10E-05* -0.11E-02   92 101 1 -0.21E-03*  0.50   1.82    LS   YES    0:00:02
       36   1    6    0  -740.19513757   -0.12E-06*  0.31E-03   92 101 1 -0.19E-03*  0.50   0.68    QN   YES    0:00:02
       37   1    6    0  -740.19513797   -0.39E-06*  0.46E-03   92 101 1 -0.14E-03*  0.50   2.50    LS   YES    0:00:02
       38   1    6    0  -740.19513815   -0.18E-06* -0.75E-03   95 101 1 -0.79E-04   0.50   0.85    QN   YES    0:00:02
       39   1    6    0  -740.19513831   -0.16E-06* -0.11E-02   92 101 1 -0.47E-04   0.50   2.50    LS   YES    0:00:02
       40   1    6    0  -740.19513837   -0.59E-07* -0.29E-03   81 101 1  0.55E-04   0.50   0.74    QN   YES    0:00:02
       41   1    5    0  -740.19513843   -0.62E-07* -0.43E-03   81 101 1  0.32E-04   0.50   2.50    LS   YES    0:00:02
       42   1    5    0  -740.19513841    0.21E-07* -0.20E-03   74 101 1  0.52E-04   0.50   0.33    LS   YES    0:00:02
       43   1    5    0  -740.19513844   -0.31E-07* -0.26E-03   74 101 1  0.26E-04   0.50   1.12    QN   YES    0:00:02
       44   1    5    0  -740.19513846   -0.14E-07* -0.39E-03   98 101 1 -0.18E-04   0.50   2.50    LS   YES    0:00:02
       45   1    5    0  -740.19513846   -0.82E-08  -0.12E-03   95 101 1  0.24E-04   0.50   0.78    QN   YES    0:00:02
      Convergence after 45 iterations
       46   1    5    0  -740.19513847   -0.74E-08  -0.12E-03   92 101 1  0.17E-04   0.50   0.78    QN   YES    0:00:02
 
      ************************************************************************************************************************
                                                      Wave function printout:
                       occupation of active orbitals, and spin coupling of open shells (u,d: Spin up or down)
      ************************************************************************************************************************
 
      Note: transformation to natural orbitals
      has been made, which may change the order of the CSFs.
 
      printout of CI-coefficients larger than  0.05 for root  1
      energy=  -29740.222335
      conf/sym  1111     Coeff  Weight
             1  uu00  -0.18437 0.03399
             3  u00u   0.73188 0.53565
             4  0uu0   0.60118 0.36142
             5  0u0u   0.07593 0.00577
             6  00uu  -0.25128 0.06314
 
      printout of CI-coefficients larger than  0.05 for root  2
      energy=  -29740.222128
      conf/sym  1111     Coeff  Weight
             1  uu00   0.21920 0.04805
             2  u0u0  -0.64828 0.42026
             4  0uu0   0.07051 0.00497
             5  0u0u   0.70480 0.49675
             6  00uu   0.17171 0.02949
 
      printout of CI-coefficients larger than  0.05 for root  3
      energy=  -29740.215145
      conf/sym  1111     Coeff  Weight
             1  uu00  -0.80447 0.64717
             2  u0u0   0.05301 0.00281
             3  u00u  -0.33688 0.11349
             4  0uu0   0.28848 0.08322
             5  0u0u   0.17417 0.03034
             6  00uu   0.35068 0.12297
 
      printout of CI-coefficients larger than  0.05 for root  4
      energy=  -29740.196240
      conf/sym  1111     Coeff  Weight
             1  uu00   0.32312 0.10441
             2  u0u0   0.15785 0.02492
             3  u00u  -0.57130 0.32639
             4  0uu0   0.63095 0.39809
             5  0u0u   0.05593 0.00313
             6  00uu  -0.37824 0.14306
 
      printout of CI-coefficients larger than  0.05 for root  5
      energy=  -29740.182233
      conf/sym  1111     Coeff  Weight
             1  uu00   0.05991 0.00359
             2  u0u0   0.70849 0.50196
             3  u00u   0.10135 0.01027
             4  0uu0  -0.19879 0.03952
             5  0u0u   0.66567 0.44311
 
      printout of CI-coefficients larger than  0.05 for root  6
      energy=  -29740.132750
      conf/sym  1111     Coeff  Weight
             1  uu00   0.40347 0.16278
             2  u0u0   0.22366 0.05002
             3  u00u   0.11716 0.01373
             4  0uu0   0.33582 0.11278
             5  0u0u  -0.14459 0.02091
             6  00uu   0.79986 0.63978
 
      Natural orbitals and occupation numbers for root  1
      sym 1:   0.614315   0.385685   0.385685   0.614315
 
      Natural orbitals and occupation numbers for root  2
      sym 1:   0.416632   0.583368   0.416632   0.583368
 
      Natural orbitals and occupation numbers for root  3
      sym 1:   0.814720   0.814720   0.185280   0.185280
 
      Natural orbitals and occupation numbers for root  4
      sym 1:   0.408248   0.591752   0.591752   0.408248
 
      Natural orbitals and occupation numbers for root  5
      sym 1:   0.576421   0.423579   0.576421   0.423579
 
      Natural orbitals and occupation numbers for root  6
      sym 1:   0.192677   0.192677   0.807323   0.807323
 
      ************************************************************************************************************************
      *                                                                                                                      *
      *                                                    Final results                                                     *
      *                                                                                                                      *
      ************************************************************************************************************************
 
 
++    Wave function specifications:
      -----------------------------
 
      Number of closed shell electrons         190
      Number of electrons in active shells       2
      Max number of holes in RAS1 space          0
      Max nr of electrons in RAS3 space          0
      Number of inactive orbitals               95
      Number of active orbitals                  4
      Number of secondary orbitals              30
      Spin quantum number                      1.0
      State symmetry                             1
--
 
++    Orbital specifications:
      -----------------------
 
      Symmetry species                           1
                                                 a
      Frozen orbitals                            0
      Inactive orbitals                         95
      Active orbitals                            4
      RAS1 orbitals                              0
      RAS2 orbitals                              4
      RAS3 orbitals                              0
      Secondary orbitals                        30
      Deleted orbitals                           0
      Number of basis functions                129
--
 
++    CI expansion specifications:
      ----------------------------
 
      Number of CSFs                             6
      Number of determinants                     6
      Number of root(s) required                 6
      CI roots used                              1     2     3     4     5     6
      weights                                0.167 0.167 0.167 0.167 0.167 0.167
      highest root included in the CI            6
      Root passed to geometry opt.               6
--
 
++    Final optimization conditions:
      ------------------------------
 
      Average CI energy                          -29740.19513847
      RASSCF energy for state  6                 -29740.13274956
      Super-CI energy                                -0.00000000
      RASSCF energy change                           -0.00000001
      Max change in MO coefficients               0.130E-03
      Max non-diagonal density matrix element    -0.124E-03
      Maximum BLB matrix element                  0.172E-04
      (orbital pair  92, 101 in symmetry   1)
      Norm of electronic gradient            0.597E-01
--
 
 
      Final state energy(ies):
      ------------------------
 
::    RASSCF root number  1 Total energy: -29740.22233544
::    RASSCF root number  2 Total energy: -29740.22212751
::    RASSCF root number  3 Total energy: -29740.21514522
::    RASSCF root number  4 Total energy: -29740.19624001
::    RASSCF root number  5 Total energy: -29740.18223309
::    RASSCF root number  6 Total energy: -29740.13274956
 
++    Molecular orbitals:
      -------------------
 
      Pseudonatural active orbitals and approximate occupation numbers
 
 
 
 
      Molecular orbitals for symmetry species 1: a  
 
 
      Orbital                1         2         3         4         5         6         7         8         9        10
      Energy        -4373.2114 -828.8897 -693.2358 -693.2353 -693.2347 -213.3109 -175.0389 -175.0375 -175.0349 -139.3971
      Occ. No.          2.0000    2.0000    2.0000    2.0000    2.0000    2.0000    2.0000    2.0000    2.0000    2.0000
 
    1 C1     1s        -0.0000   -0.0000   -0.0000    0.0000    0.0000   -0.0000    0.0000    0.0000   -0.0000    0.0000
    2 C1     2s         0.0000   -0.0000    0.0000    0.0000    0.0000   -0.0000    0.0000    0.0000    0.0000    0.0000
    3 C1     2px       -0.0000   -0.0000    0.0000    0.0000   -0.0000   -0.0000    0.0000   -0.0000    0.0000   -0.0000
    4 C1     2py       -0.0000   -0.0000    0.0000    0.0000    0.0000   -0.0000    0.0000    0.0000    0.0000   -0.0000
    5 C1     2pz        0.0000    0.0000    0.0000   -0.0000   -0.0000    0.0000   -0.0000   -0.0000    0.0000    0.0000
    6 C2     1s        -0.0000   -0.0000    0.0000   -0.0000   -0.0000   -0.0000   -0.0000   -0.0000    0.0000   -0.0000
    7 C2     2s        -0.0000   -0.0000    0.0000   -0.0000   -0.0000   -0.0000   -0.0000   -0.0000    0.0000   -0.0000
    8 C2     2px        0.0000    0.0000    0.0000   -0.0000   -0.0000    0.0000   -0.0000   -0.0000    0.0000   -0.0000
    9 C2     2py        0.0000    0.0000    0.0000   -0.0000   -0.0000    0.0000   -0.0000   -0.0000    0.0000   -0.0000
   10 C2     2pz       -0.0000   -0.0000   -0.0000    0.0000    0.0000   -0.0000   -0.0000    0.0000   -0.0000    0.0000
   11 C3     1s         0.0000    0.0000    0.0000   -0.0000   -0.0000    0.0000   -0.0000   -0.0000    0.0000   -0.0000
   12 C3     2s         0.0000    0.0000    0.0000   -0.0000   -0.0000    0.0000   -0.0000   -0.0000    0.0000   -0.0000
   13 C3     2px        0.0000    0.0000   -0.0000    0.0000   -0.0000    0.0000    0.0000   -0.0000   -0.0000    0.0000
   14 C3     2py        0.0000    0.0000   -0.0000    0.0000    0.0000    0.0000    0.0000    0.0000   -0.0000    0.0000
   15 C3     2pz       -0.0000   -0.0000   -0.0000    0.0000    0.0000   -0.0000    0.0000    0.0000   -0.0000    0.0000
   16 C4     1s         0.0000   -0.0000   -0.0000    0.0000    0.0000   -0.0000    0.0000    0.0000   -0.0000    0.0000
   17 C4     2s         0.0000    0.0000   -0.0000    0.0000    0.0000    0.0000    0.0000    0.0000   -0.0000    0.0000
   18 C4     2px        0.0000    0.0000   -0.0000    0.0000   -0.0000    0.0000    0.0000   -0.0000   -0.0000   -0.0000
   19 C4     2py       -0.0000   -0.0000   -0.0000    0.0000    0.0000   -0.0000    0.0000    0.0000   -0.0000   -0.0000
   20 C4     2pz        0.0000    0.0000    0.0000    0.0000    0.0000    0.0000   -0.0000   -0.0000    0.0000    0.0000
   21 C5     1s         0.0000    0.0000    0.0000   -0.0000   -0.0000    0.0000   -0.0000   -0.0000    0.0000    0.0000
   22 C5     2s         0.0000    0.0000    0.0000   -0.0000   -0.0000    0.0000   -0.0000   -0.0000    0.0000   -0.0000
   23 C5     2px       -0.0000   -0.0000   -0.0000    0.0000    0.0000   -0.0000    0.0000    0.0000   -0.0000    0.0000
   24 C5     2py       -0.0000   -0.0000   -0.0000    0.0000    0.0000   -0.0000    0.0000    0.0000   -0.0000    0.0000
   25 C5     2pz        0.0000    0.0000    0.0000   -0.0000   -0.0000    0.0000   -0.0000   -0.0000    0.0000   -0.0000
   26 C6     1s         0.0000    0.0000    0.0000   -0.0000   -0.0000    0.0000   -0.0000   -0.0000    0.0000    0.0000
   27 C6     2s         0.0000    0.0000    0.0000   -0.0000   -0.0000    0.0000   -0.0000   -0.0000    0.0000    0.0000
   28 C6     2px       -0.0000   -0.0000   -0.0000    0.0000    0.0000   -0.0000    0.0000    0.0000   -0.0000    0.0000
   29 C6     2py       -0.0000   -0.0000   -0.0000    0.0000    0.0000   -0.0000    0.0000    0.0000   -0.0000    0.0000
   30 C6     2pz        0.0000    0.0000    0.0000   -0.0000   -0.0000    0.0000   -0.0000   -0.0000    0.0000   -0.0000
   31 S7     1s        -0.0000   -0.0000    0.0000    0.0000    0.0000   -0.0000    0.0000    0.0000   -0.0000    0.0000
   32 S7     2s        -0.0000   -0.0000    0.0000    0.0000    0.0000   -0.0000    0.0000    0.0000   -0.0000    0.0000
   33 S7     3s        -0.0000   -0.0000    0.0000    0.0000    0.0000   -0.0000    0.0000    0.0000   -0.0000    0.0000
   34 S7     2px       -0.0000    0.0000   -0.0000   -0.0000   -0.0000   -0.0000   -0.0000   -0.0000    0.0000   -0.0000
   35 S7     3px       -0.0000   -0.0000   -0.0000   -0.0000   -0.0000   -0.0000   -0.0000   -0.0000   -0.0000   -0.0000
   36 S7     2py       -0.0000    0.0000   -0.0000   -0.0000   -0.0000   -0.0000   -0.0000   -0.0000    0.0000   -0.0000
   37 S7     3py       -0.0000   -0.0000   -0.0000   -0.0000   -0.0000   -0.0000   -0.0000   -0.0000   -0.0000   -0.0000
   38 S7     2pz       -0.0000   -0.0000    0.0000    0.0000   -0.0000   -0.0000    0.0000   -0.0000    0.0000    0.0000
   39 S7     3pz       -0.0000   -0.0000    0.0000   -0.0000   -0.0000   -0.0000   -0.0000   -0.0000    0.0000   -0.0000
   40 O8     1s         0.0000    0.0000    0.0000    0.0000    0.0000    0.0000    0.0000    0.0000    0.0000    0.0000
   41 O8     2s         0.0000    0.0000   -0.0000   -0.0000    0.0000    0.0000   -0.0000    0.0000    0.0000    0.0000
   42 O8     2px       -0.0000   -0.0000    0.0000    0.0000    0.0000   -0.0000    0.0000    0.0000    0.0000    0.0000
   43 O8     2py       -0.0000   -0.0000    0.0000    0.0000    0.0000   -0.0000    0.0000    0.0000   -0.0000    0.0000
   44 O8     2pz        0.0000    0.0000    0.0000   -0.0000   -0.0000    0.0000   -0.0000   -0.0000    0.0000    0.0000
   45 NP9    1s         1.0000   -0.0000   -0.0000    0.0000    0.0000    0.0000   -0.0000   -0.0000    0.0000    0.0000
   46 NP9    2s         0.0000    1.0000   -0.0000    0.0000    0.0000   -0.0000    0.0000    0.0000   -0.0000   -0.0000
   47 NP9    3s        -0.0000    0.0000    0.0000   -0.0000   -0.0000    1.0000    0.0000    0.0000   -0.0000   -0.0000
   48 NP9    4s         0.0000   -0.0000   -0.0000    0.0000    0.0000   -0.0000   -0.0000   -0.0000    0.0000    0.0000
   49 NP9    5s        -0.0000    0.0000    0.0000    0.0000   -0.0000    0.0000    0.0000    0.0000   -0.0000    0.0000
   50 NP9    6s         0.0000   -0.0000   -0.0000   -0.0000    0.0000    0.0000   -0.0000   -0.0000    0.0000   -0.0000
   51 NP9    7s        -0.0000    0.0000   -0.0000   -0.0000   -0.0000   -0.0000   -0.0000    0.0000   -0.0000   -0.0000
   52 NP9    2px       -0.0000   -0.0000    0.0479   -0.1029    0.9935    0.0000    0.0000   -0.0000   -0.0000    0.0000
   53 NP9    3px        0.0000   -0.0000    0.0000   -0.0000    0.0000   -0.0000   -0.0256    0.9980    0.0585    0.0000
   54 NP9    4px       -0.0000    0.0000   -0.0000    0.0000   -0.0000   -0.0000    0.0000   -0.0000   -0.0000    0.0000
   55 NP9    5px        0.0000   -0.0000    0.0000   -0.0000    0.0000    0.0000   -0.0000    0.0000    0.0000    0.0000
   56 NP9    6px       -0.0000   -0.0000    0.0000   -0.0000   -0.0000   -0.0000   -0.0000   -0.0000    0.0000   -0.0000
   57 NP9    7px       -0.0000   -0.0000    0.0000   -0.0000    0.0000   -0.0000   -0.0000    0.0000    0.0000   -0.0000
   58 NP9    2py       -0.0000   -0.0000    0.0370    0.9942    0.1012    0.0000   -0.0000   -0.0000   -0.0000    0.0000
   59 NP9    3py        0.0000   -0.0000    0.0000    0.0000    0.0000   -0.0000    0.9996    0.0261   -0.0080    0.0000
   60 NP9    4py       -0.0000    0.0000   -0.0000   -0.0000   -0.0000   -0.0000   -0.0000   -0.0000    0.0000   -0.0000
   61 NP9    5py       -0.0000   -0.0000    0.0000    0.0000    0.0000    0.0000    0.0000    0.0000   -0.0000    0.0000
   62 NP9    6py       -0.0000    0.0000    0.0000   -0.0000   -0.0000   -0.0000   -0.0000   -0.0000    0.0000    0.0000
   63 NP9    7py       -0.0000   -0.0000    0.0000    0.0000   -0.0000   -0.0000    0.0000   -0.0000    0.0000   -0.0000
   64 NP9    2pz        0.0000    0.0000    0.9982   -0.0319   -0.0514   -0.0000   -0.0000    0.0000   -0.0000   -0.0000
   65 NP9    3pz       -0.0000    0.0000    0.0000   -0.0000   -0.0000    0.0000    0.0095   -0.0582    0.9983    0.0000
   66 NP9    4pz        0.0000   -0.0000   -0.0000    0.0000    0.0000    0.0000   -0.0000    0.0000   -0.0000   -0.0000
   67 NP9    5pz       -0.0000    0.0000    0.0000   -0.0000   -0.0000   -0.0000   -0.0000   -0.0000    0.0000   -0.0000
   68 NP9    6pz       -0.0000   -0.0000    0.0000    0.0000    0.0000   -0.0000    0.0000    0.0000    0.0000    0.0000
   69 NP9    7pz       -0.0000   -0.0000    0.0000    0.0000    0.0000   -0.0000    0.0000   -0.0000    0.0000    0.0000
   70 NP9    3d2-      -0.0000   -0.0000   -0.0000   -0.0000   -0.0000   -0.0000   -0.0000   -0.0000   -0.0000    0.7477
   71 NP9    4d2-       0.0000    0.0000    0.0000    0.0000    0.0000   -0.0000    0.0000   -0.0000   -0.0000   -0.0000
   72 NP9    5d2-       0.0000   -0.0000   -0.0000    0.0000   -0.0000    0.0000   -0.0000    0.0000    0.0000    0.0000
   73 NP9    6d2-      -0.0000    0.0000    0.0000    0.0000    0.0000   -0.0000    0.0000   -0.0000   -0.0000   -0.0000
   74 NP9    3d1-       0.0000    0.0000   -0.0000    0.0000    0.0000    0.0000    0.0000    0.0000   -0.0000   -0.0251
   75 NP9    4d1-      -0.0000   -0.0000    0.0000   -0.0000   -0.0000    0.0000    0.0000    0.0000   -0.0000    0.0000
   76 NP9    5d1-       0.0000    0.0000   -0.0000    0.0000    0.0000   -0.0000   -0.0000   -0.0000    0.0000    0.0000
   77 NP9    6d1-      -0.0000   -0.0000    0.0000    0.0000    0.0000   -0.0000    0.0000    0.0000   -0.0000   -0.0000
   78 NP9    3d0        0.0000   -0.0000    0.0000    0.0000    0.0000   -0.0000    0.0000    0.0000    0.0000   -0.0604
   79 NP9    4d0       -0.0000   -0.0000   -0.0000   -0.0000   -0.0000   -0.0000    0.0000   -0.0000    0.0000    0.0000
   80 NP9    5d0       -0.0000    0.0000    0.0000    0.0000    0.0000   -0.0000   -0.0000   -0.0000   -0.0000   -0.0000
   81 NP9    6d0        0.0000    0.0000    0.0000    0.0000   -0.0000    0.0000    0.0000   -0.0000    0.0000   -0.0000
   82 NP9    3d1+       0.0000    0.0000   -0.0000   -0.0000    0.0000   -0.0000   -0.0000    0.0000   -0.0000    0.0403
   83 NP9    4d1+      -0.0000   -0.0000    0.0000    0.0000   -0.0000   -0.0000   -0.0000    0.0000   -0.0000   -0.0000
   84 NP9    5d1+      -0.0000    0.0000   -0.0000   -0.0000    0.0000   -0.0000    0.0000   -0.0000    0.0000    0.0000
   85 NP9    6d1+       0.0000   -0.0000   -0.0000    0.0000   -0.0000    0.0000    0.0000    0.0000   -0.0000   -0.0000
   86 NP9    3d2+      -0.0000   -0.0000    0.0000    0.0000   -0.0000   -0.0000    0.0000   -0.0000   -0.0000   -0.6596
   87 NP9    4d2+      -0.0000    0.0000   -0.0000   -0.0000    0.0000   -0.0000    0.0000   -0.0000   -0.0000    0.0000
   88 NP9    5d2+       0.0000   -0.0000    0.0000    0.0000    0.0000    0.0000   -0.0000    0.0000    0.0000   -0.0000
   89 NP9    6d2+       0.0000    0.0000    0.0000    0.0000   -0.0000    0.0000    0.0000   -0.0000    0.0000   -0.0000
   90 NP9    4f3-      -0.0000    0.0000   -0.0000   -0.0000   -0.0000    0.0000   -0.0000   -0.0000   -0.0000    0.0000
   91 NP9    5f3-      -0.0000   -0.0000   -0.0000    0.0000    0.0000   -0.0000    0.0000    0.0000    0.0000   -0.0000
   92 NP9    4f2-       0.0000   -0.0000   -0.0000   -0.0000    0.0000   -0.0000   -0.0000    0.0000    0.0000    0.0000
   93 NP9    5f2-      -0.0000    0.0000    0.0000    0.0000   -0.0000    0.0000    0.0000   -0.0000   -0.0000   -0.0000
   94 NP9    4f1-       0.0000    0.0000    0.0000   -0.0000   -0.0000    0.0000   -0.0000   -0.0000    0.0000    0.0000
   95 NP9    5f1-       0.0000   -0.0000    0.0000    0.0000    0.0000   -0.0000    0.0000    0.0000   -0.0000   -0.0000
   96 NP9    4f0       -0.0000    0.0000   -0.0000   -0.0000    0.0000   -0.0000   -0.0000    0.0000   -0.0000   -0.0000
   97 NP9    5f0       -0.0000   -0.0000    0.0000    0.0000   -0.0000   -0.0000    0.0000   -0.0000    0.0000    0.0000
   98 NP9    4f1+      -0.0000   -0.0000    0.0000    0.0000   -0.0000   -0.0000   -0.0000   -0.0000   -0.0000    0.0000
   99 NP9    5f1+       0.0000    0.0000    0.0000    0.0000    0.0000   -0.0000    0.0000    0.0000    0.0000   -0.0000
  100 NP9    4f2+      -0.0000   -0.0000   -0.0000   -0.0000   -0.0000   -0.0000   -0.0000   -0.0000   -0.0000   -0.0000
  101 NP9    5f2+      -0.0000    0.0000    0.0000   -0.0000    0.0000   -0.0000    0.0000    0.0000    0.0000    0.0000
  102 NP9    4f3+       0.0000   -0.0000   -0.0000   -0.0000   -0.0000   -0.0000   -0.0000   -0.0000   -0.0000    0.0000
  103 NP9    5f3+       0.0000    0.0000    0.0000    0.0000    0.0000    0.0000    0.0000    0.0000    0.0000   -0.0000
  104 O10    1s         0.0000    0.0000    0.0000   -0.0000    0.0000    0.0000    0.0000    0.0000    0.0000    0.0000
  105 O10    2s        -0.0000    0.0000    0.0000   -0.0000    0.0000   -0.0000   -0.0000    0.0000    0.0000    0.0000
  106 O10    2px       -0.0000   -0.0000    0.0000    0.0000   -0.0000   -0.0000    0.0000   -0.0000    0.0000    0.0000
  107 O10    2py        0.0000    0.0000    0.0000   -0.0000   -0.0000    0.0000   -0.0000   -0.0000   -0.0000    0.0000
  108 O10    2pz       -0.0000   -0.0000    0.0000   -0.0000    0.0000   -0.0000   -0.0000    0.0000    0.0000    0.0000
  109 O11    1s         0.0000    0.0000   -0.0000    0.0000   -0.0000    0.0000    0.0000   -0.0000   -0.0000    0.0000
  110 O11    2s         0.0000    0.0000   -0.0000    0.0000   -0.0000    0.0000    0.0000   -0.0000   -0.0000    0.0000
  111 O11    2px        0.0000    0.0000   -0.0000   -0.0000    0.0000    0.0000   -0.0000    0.0000    0.0000    0.0000
  112 O11    2py       -0.0000   -0.0000   -0.0000    0.0000   -0.0000   -0.0000    0.0000   -0.0000   -0.0000   -0.0000
  113 O11    2pz        0.0000    0.0000    0.0000   -0.0000    0.0000    0.0000    0.0000   -0.0000    0.0000    0.0000
  114 O12    1s         0.0000    0.0000   -0.0000    0.0000   -0.0000    0.0000    0.0000   -0.0000   -0.0000    0.0000
  115 O12    2s         0.0000    0.0000   -0.0000    0.0000   -0.0000    0.0000    0.0000   -0.0000   -0.0000   -0.0000
  116 O12    2px       -0.0000   -0.0000   -0.0000   -0.0000    0.0000   -0.0000   -0.0000    0.0000   -0.0000   -0.0000
  117 O12    2py        0.0000    0.0000    0.0000    0.0000   -0.0000    0.0000    0.0000   -0.0000    0.0000   -0.0000
  118 O12    2pz        0.0000    0.0000   -0.0000    0.0000   -0.0000    0.0000    0.0000   -0.0000   -0.0000   -0.0000
  119 H13    1s        -0.0000   -0.0000    0.0000   -0.0000    0.0000   -0.0000   -0.0000    0.0000    0.0000   -0.0000
  120 O14    1s         0.0000    0.0000   -0.0000    0.0000    0.0000    0.0000   -0.0000    0.0000   -0.0000    0.0000
  121 O14    2s        -0.0000    0.0000   -0.0000   -0.0000    0.0000   -0.0000   -0.0000    0.0000   -0.0000    0.0000
  122 O14    2px        0.0000    0.0000   -0.0000    0.0000   -0.0000    0.0000    0.0000   -0.0000   -0.0000    0.0000
  123 O14    2py       -0.0000   -0.0000   -0.0000   -0.0000   -0.0000   -0.0000   -0.0000   -0.0000    0.0000    0.0000
  124 O14    2pz        0.0000    0.0000    0.0000    0.0000   -0.0000    0.0000    0.0000   -0.0000    0.0000   -0.0000
  125 H15    1s        -0.0000   -0.0000   -0.0000    0.0000    0.0000   -0.0000    0.0000    0.0000   -0.0000    0.0000
  126 H16    1s         0.0000    0.0000    0.0000   -0.0000   -0.0000    0.0000   -0.0000   -0.0000    0.0000    0.0000
  127 H17    1s         0.0000    0.0000    0.0000   -0.0000   -0.0000    0.0000   -0.0000   -0.0000    0.0000   -0.0000
  128 H18    1s         0.0000    0.0000    0.0000   -0.0000   -0.0000    0.0000   -0.0000   -0.0000    0.0000   -0.0000
  129 H19    1s         0.0000    0.0000    0.0000   -0.0000   -0.0000    0.0000   -0.0000   -0.0000    0.0000    0.0000
 
 
      Orbital               11        12        13        14        15        16        17        18        19        20
      Energy         -139.3969 -139.3964 -139.3956 -139.3951  -92.4080  -56.4414  -43.6728  -43.6705  -43.6673  -30.0165
      Occ. No.          2.0000    2.0000    2.0000    2.0000    2.0000    2.0000    2.0000    2.0000    2.0000    2.0000
 
    1 C1     1s         0.0000   -0.0000   -0.0000    0.0000    0.0000   -0.0000    0.0000    0.0000   -0.0000    0.0000
    2 C1     2s         0.0000   -0.0000   -0.0000    0.0000   -0.0000    0.0000    0.0000    0.0000   -0.0000    0.0000
    3 C1     2px       -0.0000    0.0000    0.0000   -0.0000    0.0000   -0.0000   -0.0000   -0.0000    0.0000    0.0000
    4 C1     2py       -0.0000    0.0000    0.0000   -0.0000    0.0000   -0.0000   -0.0000    0.0000    0.0000   -0.0000
    5 C1     2pz        0.0000   -0.0000   -0.0000    0.0000   -0.0000    0.0000   -0.0000   -0.0000   -0.0000    0.0000
    6 C2     1s         0.0000    0.0000    0.0000    0.0000   -0.0000   -0.0000   -0.0000   -0.0000    0.0000   -0.0000
    7 C2     2s         0.0000    0.0000    0.0000    0.0000   -0.0000   -0.0000   -0.0000   -0.0000    0.0000   -0.0000
    8 C2     2px       -0.0000   -0.0000    0.0000   -0.0000   -0.0000    0.0000   -0.0000   -0.0000    0.0000    0.0000
    9 C2     2py        0.0000    0.0000    0.0000   -0.0000   -0.0000    0.0000   -0.0000   -0.0000    0.0000   -0.0000
   10 C2     2pz        0.0000    0.0000    0.0000    0.0000    0.0000   -0.0000    0.0000    0.0000   -0.0000   -0.0000
   11 C3     1s        -0.0000    0.0000    0.0000    0.0000   -0.0000    0.0000   -0.0000   -0.0000    0.0000   -0.0000
   12 C3     2s        -0.0000    0.0000    0.0000    0.0000   -0.0000    0.0000   -0.0000   -0.0000    0.0000   -0.0000
   13 C3     2px       -0.0000   -0.0000   -0.0000    0.0000    0.0000    0.0000    0.0000    0.0000   -0.0000    0.0000
   14 C3     2py        0.0000   -0.0000   -0.0000    0.0000    0.0000    0.0000    0.0000    0.0000   -0.0000   -0.0000
   15 C3     2pz        0.0000   -0.0000   -0.0000    0.0000   -0.0000   -0.0000    0.0000    0.0000   -0.0000   -0.0000
   16 C4     1s         0.0000   -0.0000   -0.0000    0.0000   -0.0000    0.0000    0.0000    0.0000   -0.0000   -0.0000
   17 C4     2s         0.0000   -0.0000   -0.0000    0.0000   -0.0000    0.0000    0.0000    0.0000   -0.0000   -0.0000
   18 C4     2px       -0.0000    0.0000    0.0000    0.0000    0.0000    0.0000    0.0000   -0.0000   -0.0000    0.0000
   19 C4     2py        0.0000    0.0000   -0.0000    0.0000    0.0000   -0.0000   -0.0000    0.0000   -0.0000   -0.0000
   20 C4     2pz        0.0000   -0.0000   -0.0000    0.0000   -0.0000    0.0000    0.0000    0.0000    0.0000    0.0000
   21 C5     1s        -0.0000    0.0000    0.0000   -0.0000   -0.0000    0.0000   -0.0000   -0.0000    0.0000    0.0000
   22 C5     2s        -0.0000    0.0000    0.0000   -0.0000    0.0000    0.0000   -0.0000   -0.0000    0.0000    0.0000
   23 C5     2px        0.0000   -0.0000   -0.0000    0.0000   -0.0000   -0.0000    0.0000    0.0000   -0.0000   -0.0000
   24 C5     2py        0.0000   -0.0000   -0.0000    0.0000   -0.0000   -0.0000    0.0000    0.0000   -0.0000   -0.0000
   25 C5     2pz       -0.0000    0.0000    0.0000   -0.0000    0.0000    0.0000   -0.0000   -0.0000    0.0000   -0.0000
   26 C6     1s         0.0000   -0.0000   -0.0000    0.0000   -0.0000    0.0000   -0.0000   -0.0000    0.0000    0.0000
   27 C6     2s         0.0000    0.0000    0.0000    0.0000   -0.0000    0.0000   -0.0000   -0.0000    0.0000    0.0000
   28 C6     2px        0.0000   -0.0000   -0.0000   -0.0000    0.0000   -0.0000    0.0000    0.0000   -0.0000   -0.0000
   29 C6     2py       -0.0000   -0.0000   -0.0000   -0.0000    0.0000   -0.0000    0.0000    0.0000   -0.0000    0.0000
   30 C6     2pz        0.0000    0.0000    0.0000    0.0000   -0.0000    0.0000   -0.0000   -0.0000    0.0000   -0.0000
   31 S7     1s         0.0000   -0.0000   -0.0000    0.0000    1.0000   -0.0000    0.0000    0.0000   -0.0000    0.0000
   32 S7     2s         0.0000   -0.0000   -0.0000    0.0000   -0.0000   -0.0000    0.0000    0.0000   -0.0000    0.0000
   33 S7     3s         0.0000   -0.0000   -0.0000    0.0000   -0.0004   -0.0000    0.0000    0.0000   -0.0000    0.0000
   34 S7     2px        0.0000    0.0000   -0.0000    0.0000   -0.0000   -0.0000   -0.0000   -0.0000    0.0000   -0.0000
   35 S7     3px       -0.0000   -0.0000   -0.0000   -0.0000    0.0000   -0.0000   -0.0000   -0.0000   -0.0000   -0.0000
   36 S7     2py        0.0000   -0.0000    0.0000    0.0000   -0.0001   -0.0000   -0.0000   -0.0000    0.0000   -0.0000
   37 S7     3py        0.0000   -0.0000   -0.0000   -0.0000    0.0000   -0.0000   -0.0000   -0.0000   -0.0000   -0.0000
   38 S7     2pz       -0.0000    0.0000    0.0000    0.0000   -0.0001   -0.0000    0.0000    0.0000    0.0000    0.0000
   39 S7     3pz       -0.0000    0.0000    0.0000    0.0000    0.0000   -0.0000    0.0000    0.0000    0.0000    0.0000
   40 O8     1s         0.0000    0.0000   -0.0000    0.0000    0.0000    0.0000    0.0000    0.0000   -0.0000   -0.0000
   41 O8     2s         0.0000    0.0000   -0.0000    0.0000    0.0000    0.0000    0.0000    0.0000   -0.0000   -0.0000
   42 O8     2px        0.0000    0.0000    0.0000   -0.0000   -0.0000   -0.0000    0.0000    0.0000    0.0000   -0.0000
   43 O8     2py        0.0000    0.0000    0.0000   -0.0000    0.0000   -0.0000    0.0000    0.0000    0.0000    0.0000
   44 O8     2pz       -0.0000    0.0000    0.0000   -0.0000   -0.0000    0.0000   -0.0000   -0.0000    0.0000    0.0000
   45 NP9    1s         0.0000   -0.0000    0.0000   -0.0000   -0.0000   -0.0000   -0.0000    0.0000   -0.0000   -0.0000
   46 NP9    2s         0.0000   -0.0000    0.0000    0.0000   -0.0000    0.0000   -0.0000   -0.0000    0.0000   -0.0000
   47 NP9    3s         0.0000   -0.0000    0.0000    0.0000   -0.0000    0.0000    0.0000    0.0000   -0.0000    0.0000
   48 NP9    4s        -0.0000    0.0000   -0.0000    0.0000   -0.0000    1.0000    0.0002    0.0001   -0.0000    0.0001
   49 NP9    5s         0.0000   -0.0000    0.0000   -0.0000   -0.0000   -0.0001   -0.0000   -0.0000    0.0000    0.0000
   50 NP9    6s        -0.0000    0.0000   -0.0000    0.0000   -0.0000    0.0000   -0.0000    0.0000   -0.0000   -0.0000
   51 NP9    7s         0.0000    0.0000   -0.0000   -0.0000   -0.0000   -0.0000   -0.0000   -0.0000    0.0000   -0.0000
   52 NP9    2px        0.0000    0.0000   -0.0000   -0.0000   -0.0000   -0.0000   -0.0000    0.0000    0.0000   -0.0000
   53 NP9    3px        0.0000    0.0000   -0.0000   -0.0000   -0.0000    0.0000   -0.0000    0.0000    0.0000    0.0000
   54 NP9    4px       -0.0000   -0.0000    0.0000   -0.0000   -0.0000   -0.0001   -0.0199    0.9978    0.0626    0.0001
   55 NP9    5px        0.0000    0.0000   -0.0000   -0.0000   -0.0000   -0.0000    0.0000   -0.0002   -0.0000   -0.0000
   56 NP9    6px        0.0000    0.0000   -0.0000   -0.0000   -0.0000   -0.0000   -0.0000    0.0000    0.0000    0.0000
   57 NP9    7px       -0.0000    0.0000   -0.0000   -0.0000   -0.0000   -0.0000   -0.0000   -0.0000   -0.0000   -0.0000
   58 NP9    2py       -0.0000   -0.0000   -0.0000   -0.0000   -0.0000   -0.0000    0.0000    0.0000   -0.0000    0.0000
   59 NP9    3py       -0.0000   -0.0000   -0.0000   -0.0000   -0.0000    0.0000    0.0000    0.0000   -0.0000   -0.0000
   60 NP9    4py        0.0000    0.0000   -0.0000    0.0000   -0.0000   -0.0002    0.9996    0.0210   -0.0172   -0.0001
   61 NP9    5py       -0.0000   -0.0000    0.0000   -0.0000   -0.0000    0.0000   -0.0002   -0.0000    0.0000    0.0000
   62 NP9    6py        0.0000    0.0000   -0.0000    0.0000   -0.0000   -0.0000    0.0000    0.0000   -0.0000   -0.0000
   63 NP9    7py       -0.0000   -0.0000    0.0000   -0.0000   -0.0000   -0.0000   -0.0000   -0.0000    0.0000    0.0000
   64 NP9    2pz       -0.0000    0.0000    0.0000   -0.0000   -0.0000    0.0000    0.0000   -0.0000    0.0000    0.0000
   65 NP9    3pz       -0.0000    0.0000    0.0000   -0.0000   -0.0000   -0.0000    0.0000   -0.0000    0.0000   -0.0000
   66 NP9    4pz        0.0000   -0.0000   -0.0000    0.0000   -0.0000    0.0000    0.0185   -0.0622    0.9979   -0.0000
   67 NP9    5pz        0.0000    0.0000    0.0000   -0.0000   -0.0000    0.0000    0.0000    0.0000   -0.0001    0.0000
   68 NP9    6pz        0.0000   -0.0000   -0.0000    0.0000   -0.0000   -0.0000    0.0000   -0.0000    0.0000   -0.0000
   69 NP9    7pz        0.0000   -0.0000    0.0000   -0.0000   -0.0000   -0.0000    0.0000    0.0000   -0.0000   -0.0000
   70 NP9    3d2-       0.6582    0.0864   -0.0106    0.0139   -0.0000    0.0000   -0.0000    0.0000    0.0000    0.0000
   71 NP9    4d2-      -0.0000   -0.0000    0.0000   -0.0000   -0.0000   -0.0000   -0.0001   -0.0001   -0.0000    0.3960
   72 NP9    5d2-       0.0000    0.0000    0.0000    0.0000   -0.0000   -0.0000    0.0000    0.0000   -0.0000   -0.0001
   73 NP9    6d2-       0.0000   -0.0000    0.0000    0.0000   -0.0000    0.0000   -0.0000   -0.0000    0.0000    0.0000
   74 NP9    3d1-      -0.1010    0.9930    0.0555    0.0011    0.0000   -0.0000   -0.0000    0.0000    0.0000   -0.0000
   75 NP9    4d1-       0.0000   -0.0000   -0.0000    0.0000    0.0000    0.0000    0.0000    0.0000   -0.0001   -0.0692
   76 NP9    5d1-      -0.0000    0.0000    0.0000   -0.0000    0.0000    0.0000    0.0000   -0.0000    0.0000    0.0000
   77 NP9    6d1-       0.0000   -0.0000   -0.0000    0.0000   -0.0000   -0.0000   -0.0000    0.0000   -0.0000   -0.0000
   78 NP9    3d0        0.0452    0.0073   -0.0953    0.9926    0.0000   -0.0000   -0.0000    0.0000   -0.0000    0.0000
   79 NP9    4d0       -0.0000   -0.0000    0.0000   -0.0000    0.0000   -0.0001    0.0001    0.0000    0.0000    0.3205
   80 NP9    5d0        0.0000    0.0000   -0.0000    0.0000    0.0000    0.0001    0.0000   -0.0000    0.0000   -0.0000
   81 NP9    6d0       -0.0000    0.0000    0.0000    0.0000    0.0000    0.0000    0.0000   -0.0000    0.0000    0.0000
   82 NP9    3d1+      -0.0243   -0.0570    0.9923    0.0992   -0.0000   -0.0000    0.0000   -0.0000    0.0000    0.0000
   83 NP9    4d1+       0.0000    0.0000   -0.0000   -0.0000    0.0000   -0.0000   -0.0000    0.0000   -0.0001   -0.0138
   84 NP9    5d1+       0.0000   -0.0000    0.0000    0.0000    0.0000    0.0000   -0.0000    0.0000   -0.0000    0.0000
   85 NP9    6d1+      -0.0000    0.0000   -0.0000    0.0000   -0.0000   -0.0000    0.0000   -0.0000   -0.0000   -0.0000
   86 NP9    3d2+       0.7443    0.0560    0.0551   -0.0691    0.0000    0.0000   -0.0000    0.0000    0.0000    0.0000
   87 NP9    4d2+      -0.0000   -0.0000   -0.0000    0.0000    0.0000   -0.0000    0.0001   -0.0001   -0.0000    0.8576
   88 NP9    5d2+       0.0000    0.0000    0.0000    0.0000    0.0000   -0.0000    0.0000   -0.0000   -0.0000   -0.0002
   89 NP9    6d2+       0.0000   -0.0000   -0.0000    0.0000    0.0000    0.0000    0.0000   -0.0000    0.0000    0.0001
   90 NP9    4f3-      -0.0000   -0.0000   -0.0000   -0.0000    0.0000    0.0000   -0.0000    0.0000    0.0000   -0.0001
   91 NP9    5f3-       0.0000    0.0000    0.0000    0.0000    0.0000   -0.0000   -0.0000   -0.0000   -0.0000   -0.0000
   92 NP9    4f2-       0.0000   -0.0000   -0.0000   -0.0000    0.0000   -0.0000   -0.0000    0.0000   -0.0000    0.0000
   93 NP9    5f2-      -0.0000    0.0000    0.0000    0.0000   -0.0000    0.0000    0.0000    0.0000   -0.0000    0.0000
   94 NP9    4f1-      -0.0000    0.0000    0.0000   -0.0000    0.0000    0.0000   -0.0000    0.0000    0.0000   -0.0001
   95 NP9    5f1-       0.0000   -0.0000   -0.0000    0.0000    0.0000    0.0000    0.0000    0.0000   -0.0000   -0.0000
   96 NP9    4f0       -0.0000    0.0000    0.0000    0.0000   -0.0000    0.0000   -0.0000   -0.0000    0.0000    0.0000
   97 NP9    5f0        0.0000   -0.0000   -0.0000   -0.0000   -0.0000   -0.0000   -0.0000   -0.0000    0.0000    0.0000
   98 NP9    4f1+       0.0000    0.0000    0.0000   -0.0000    0.0000   -0.0000    0.0000    0.0000    0.0000    0.0000
   99 NP9    5f1+      -0.0000   -0.0000   -0.0000    0.0000    0.0000    0.0000   -0.0000    0.0000    0.0000   -0.0000
  100 NP9    4f2+       0.0000    0.0000   -0.0000   -0.0000   -0.0000   -0.0000   -0.0000    0.0000   -0.0000    0.0000
  101 NP9    5f2+      -0.0000   -0.0000    0.0000    0.0000    0.0000   -0.0000   -0.0000    0.0000   -0.0000    0.0000
  102 NP9    4f3+       0.0000    0.0000   -0.0000    0.0000    0.0000   -0.0000    0.0000   -0.0000   -0.0000    0.0000
  103 NP9    5f3+      -0.0000   -0.0000    0.0000   -0.0000    0.0000    0.0000   -0.0000   -0.0000    0.0000    0.0000
  104 O10    1s        -0.0000   -0.0000   -0.0000   -0.0000    0.0000    0.0000    0.0000    0.0000    0.0000    0.0000
  105 O10    2s        -0.0000   -0.0000   -0.0000   -0.0000    0.0000    0.0000    0.0000    0.0000    0.0000    0.0000
  106 O10    2px        0.0000   -0.0000    0.0000   -0.0000    0.0000   -0.0000    0.0000   -0.0000    0.0000    0.0000
  107 O10    2py        0.0000    0.0000    0.0000   -0.0000    0.0000    0.0000   -0.0000   -0.0000    0.0000    0.0000
  108 O10    2pz       -0.0000   -0.0000   -0.0000   -0.0000   -0.0000   -0.0000   -0.0000    0.0000    0.0000    0.0000
  109 O11    1s        -0.0000   -0.0000    0.0000    0.0000    0.0000    0.0000    0.0000   -0.0000   -0.0000    0.0000
  110 O11    2s        -0.0000   -0.0000   -0.0000    0.0000    0.0000    0.0000    0.0000   -0.0000   -0.0000    0.0000
  111 O11    2px        0.0000    0.0000   -0.0000   -0.0000    0.0000    0.0000   -0.0000    0.0000    0.0000   -0.0000
  112 O11    2py       -0.0000    0.0000   -0.0000   -0.0000   -0.0000   -0.0000    0.0000   -0.0000   -0.0000   -0.0000
  113 O11    2pz       -0.0000    0.0000   -0.0000    0.0000   -0.0000    0.0000   -0.0000   -0.0000    0.0000    0.0000
  114 O12    1s        -0.0000    0.0000   -0.0000    0.0000   -0.0000    0.0000    0.0000   -0.0000   -0.0000    0.0000
  115 O12    2s        -0.0000    0.0000   -0.0000    0.0000   -0.0000    0.0000    0.0000   -0.0000   -0.0000    0.0000
  116 O12    2px       -0.0000   -0.0000    0.0000   -0.0000    0.0000   -0.0000   -0.0000    0.0000   -0.0000    0.0000
  117 O12    2py        0.0000   -0.0000    0.0000    0.0000   -0.0000    0.0000    0.0000   -0.0000    0.0000   -0.0000
  118 O12    2pz        0.0000   -0.0000    0.0000   -0.0000    0.0000    0.0000    0.0000   -0.0000   -0.0000   -0.0000
  119 H13    1s        -0.0000   -0.0000    0.0000    0.0000   -0.0000   -0.0000   -0.0000    0.0000    0.0000    0.0000
  120 O14    1s        -0.0000    0.0000    0.0000   -0.0000    0.0000    0.0000   -0.0000    0.0000   -0.0000    0.0000
  121 O14    2s        -0.0000    0.0000    0.0000   -0.0000    0.0000    0.0000   -0.0000    0.0000   -0.0000    0.0000
  122 O14    2px        0.0000   -0.0000   -0.0000   -0.0000    0.0000    0.0000    0.0000   -0.0000   -0.0000    0.0000
  123 O14    2py        0.0000   -0.0000   -0.0000   -0.0000    0.0000    0.0000   -0.0000    0.0000    0.0000   -0.0000
  124 O14    2pz        0.0000   -0.0000   -0.0000    0.0000    0.0000    0.0000    0.0000   -0.0000    0.0000   -0.0000
  125 H15    1s         0.0000   -0.0000   -0.0000   -0.0000    0.0000   -0.0000    0.0000    0.0000   -0.0000    0.0000
  126 H16    1s        -0.0000    0.0000    0.0000   -0.0000    0.0000    0.0000   -0.0000   -0.0000    0.0000    0.0000
  127 H17    1s         0.0000    0.0000    0.0000    0.0000    0.0000    0.0000   -0.0000   -0.0000    0.0000    0.0000
  128 H18    1s         0.0000    0.0000    0.0000    0.0000    0.0000    0.0000   -0.0000   -0.0000    0.0000    0.0000
  129 H19    1s         0.0000    0.0000    0.0000    0.0000   -0.0000    0.0000   -0.0000   -0.0000    0.0000    0.0000
 
 
      Orbital               21        22        23        24        25        26        27        28        29        30
      Energy          -30.0160  -30.0155  -30.0144  -30.0131  -20.2959  -20.2874  -20.2520  -20.2365  -20.2033  -15.8984
      Occ. No.          2.0000    2.0000    2.0000    2.0000    2.0000    2.0000    2.0000    2.0000    2.0000    2.0000
 
    1 C1     1s        -0.0000    0.0000    0.0000    0.0000    0.0000    0.0000   -0.0000    0.0000   -0.0000   -0.0000
    2 C1     2s        -0.0000    0.0000    0.0000    0.0000    0.0000    0.0000   -0.0000    0.0000   -0.0000   -0.0000
    3 C1     2px        0.0000   -0.0000   -0.0000   -0.0000   -0.0000   -0.0000   -0.0000   -0.0000    0.0000    0.0000
    4 C1     2py        0.0000   -0.0000   -0.0000    0.0000   -0.0000   -0.0000   -0.0000    0.0000    0.0000    0.0000
    5 C1     2pz       -0.0000    0.0000    0.0000   -0.0000   -0.0000    0.0000    0.0000   -0.0000   -0.0000   -0.0000
    6 C2     1s         0.0000   -0.0000   -0.0000    0.0000    0.0000    0.0000    0.0000   -0.0000   -0.0000   -0.0000
    7 C2     2s         0.0000   -0.0000   -0.0000    0.0000    0.0000    0.0000    0.0000   -0.0000   -0.0000   -0.0000
    8 C2     2px        0.0000    0.0000   -0.0000   -0.0000   -0.0000   -0.0000   -0.0000   -0.0000    0.0000    0.0000
    9 C2     2py        0.0000   -0.0000    0.0000    0.0000   -0.0000   -0.0000    0.0000   -0.0000    0.0000    0.0000
   10 C2     2pz       -0.0000   -0.0000   -0.0000   -0.0000    0.0000    0.0000    0.0000   -0.0000   -0.0000   -0.0000
   11 C3     1s         0.0000   -0.0000   -0.0000    0.0000   -0.0000   -0.0000    0.0000   -0.0000    0.0000    0.0000
   12 C3     2s         0.0000   -0.0000   -0.0000    0.0000   -0.0000   -0.0000    0.0000   -0.0000    0.0000   -0.0000
   13 C3     2px       -0.0000    0.0000   -0.0000   -0.0000    0.0000    0.0000    0.0000    0.0000   -0.0000    0.0000
   14 C3     2py       -0.0000    0.0000    0.0000   -0.0000    0.0000    0.0000   -0.0000   -0.0000   -0.0000    0.0000
   15 C3     2pz       -0.0000    0.0000    0.0000   -0.0000    0.0000    0.0000    0.0000   -0.0000   -0.0000   -0.0000
   16 C4     1s        -0.0000    0.0000    0.0000   -0.0000    0.0000    0.0000    0.0000   -0.0000   -0.0000   -0.0000
   17 C4     2s        -0.0000    0.0000    0.0000   -0.0000    0.0000    0.0000    0.0000   -0.0000   -0.0000   -0.0000
   18 C4     2px        0.0000    0.0000   -0.0000   -0.0000   -0.0000   -0.0000   -0.0000   -0.0000    0.0000    0.0000
   19 C4     2py        0.0000    0.0000    0.0000   -0.0000    0.0000   -0.0000   -0.0000    0.0000    0.0000    0.0000
   20 C4     2pz       -0.0000    0.0000    0.0000    0.0000    0.0000    0.0000    0.0000   -0.0000   -0.0000   -0.0000
   21 C5     1s        -0.0000   -0.0000   -0.0000    0.0000   -0.0000    0.0000    0.0000   -0.0000   -0.0000   -0.0000
   22 C5     2s        -0.0000   -0.0000   -0.0000    0.0000   -0.0000    0.0000    0.0000   -0.0000   -0.0000   -0.0000
   23 C5     2px        0.0000    0.0000    0.0000   -0.0000    0.0000   -0.0000   -0.0000   -0.0000    0.0000    0.0000
   24 C5     2py        0.0000    0.0000    0.0000   -0.0000    0.0000   -0.0000    0.0000   -0.0000    0.0000    0.0000
   25 C5     2pz        0.0000   -0.0000   -0.0000    0.0000    0.0000    0.0000    0.0000   -0.0000   -0.0000    0.0000
   26 C6     1s        -0.0000    0.0000    0.0000   -0.0000    0.0000    0.0000    0.0000   -0.0000   -0.0000   -0.0000
   27 C6     2s        -0.0000   -0.0000   -0.0000   -0.0000    0.0000    0.0000    0.0000   -0.0000   -0.0000   -0.0000
   28 C6     2px       -0.0000    0.0000    0.0000    0.0000   -0.0000   -0.0000    0.0000    0.0000    0.0000    0.0000
   29 C6     2py       -0.0000    0.0000    0.0000    0.0000   -0.0000   -0.0000   -0.0000    0.0000    0.0000    0.0000
   30 C6     2pz       -0.0000   -0.0000   -0.0000   -0.0000    0.0000    0.0000    0.0000   -0.0000   -0.0000   -0.0000
   31 S7     1s        -0.0000    0.0000    0.0000    0.0000    0.0000    0.0000    0.0000   -0.0000   -0.0000   -0.0000
   32 S7     2s        -0.0000    0.0000    0.0000    0.0000    0.0000    0.0000    0.0002   -0.0003   -0.0000   -0.0000
   33 S7     3s        -0.0000    0.0000    0.0000    0.0000    0.0000    0.0000    0.0009   -0.0010   -0.0000    0.0000
   34 S7     2px        0.0000   -0.0000   -0.0000   -0.0000   -0.0000   -0.0000    0.0001    0.0001    0.0000    0.0000
   35 S7     3px        0.0000    0.0000    0.0000   -0.0000   -0.0000   -0.0000    0.0005    0.0009    0.0000    0.0000
   36 S7     2py        0.0000   -0.0000   -0.0000   -0.0000   -0.0000   -0.0000   -0.0001    0.0000    0.0000    0.0000
   37 S7     3py        0.0000    0.0000   -0.0000   -0.0000   -0.0000   -0.0000   -0.0008    0.0003    0.0000    0.0000
   38 S7     2pz       -0.0000   -0.0000   -0.0000   -0.0000    0.0000   -0.0000   -0.0000    0.0000   -0.0000    0.0000
   39 S7     3pz       -0.0000   -0.0000   -0.0000    0.0000    0.0000   -0.0000   -0.0000    0.0000   -0.0000    0.0000
   40 O8     1s        -0.0000    0.0000    0.0000    0.0000   -0.0000   -0.0000   -1.0001    0.0009    0.0000   -0.0000
   41 O8     2s        -0.0000    0.0000    0.0000    0.0000    0.0000    0.0000   -0.0018    0.0000   -0.0000   -0.0000
   42 O8     2px       -0.0000   -0.0000   -0.0000    0.0000    0.0000    0.0000    0.0013   -0.0001    0.0000    0.0000
   43 O8     2py        0.0000    0.0000   -0.0000   -0.0000    0.0000   -0.0000   -0.0013   -0.0001    0.0000    0.0000
   44 O8     2pz       -0.0000   -0.0000   -0.0000   -0.0000    0.0000   -0.0000   -0.0000   -0.0000    0.0000   -0.0000
   45 NP9    1s         0.0000   -0.0000   -0.0000   -0.0000   -0.0000   -0.0000    0.0000   -0.0000   -0.0000   -0.0000
   46 NP9    2s         0.0000    0.0000   -0.0000    0.0000   -0.0000   -0.0000    0.0000   -0.0000   -0.0000   -0.0000
   47 NP9    3s        -0.0000    0.0000    0.0000    0.0000   -0.0000   -0.0000    0.0000   -0.0000   -0.0000    0.0000
   48 NP9    4s        -0.0000   -0.0000    0.0000    0.0001   -0.0001   -0.0001    0.0000   -0.0000   -0.0000    0.0000
   49 NP9    5s        -0.0000    0.0000   -0.0000    0.0002   -0.0002   -0.0002    0.0000   -0.0000   -0.0000   -0.0000
   50 NP9    6s         0.0000   -0.0000    0.0000   -0.0001   -0.0006   -0.0006    0.0001   -0.0001   -0.0001   -0.0000
   51 NP9    7s         0.0000   -0.0000   -0.0000   -0.0000   -0.0007   -0.0007    0.0002   -0.0002   -0.0002   -0.0000
   52 NP9    2px       -0.0000   -0.0000    0.0000    0.0000    0.0000    0.0000    0.0000   -0.0000   -0.0000    0.0000
   53 NP9    3px        0.0000    0.0000   -0.0000   -0.0000    0.0000    0.0000    0.0000   -0.0000   -0.0000    0.0000
   54 NP9    4px        0.0001    0.0000   -0.0000   -0.0001    0.0000    0.0000    0.0000   -0.0000   -0.0000   -0.0000
   55 NP9    5px        0.0000   -0.0000    0.0000   -0.0000    0.0000    0.0000    0.0000   -0.0000   -0.0000   -0.0000
   56 NP9    6px        0.0000    0.0000   -0.0000    0.0000    0.0000    0.0001    0.0001   -0.0000   -0.0001    0.0000
   57 NP9    7px        0.0000   -0.0000    0.0000   -0.0000   -0.0000    0.0000    0.0001   -0.0001   -0.0001   -0.0000
   58 NP9    2py       -0.0000    0.0000    0.0000    0.0000   -0.0000    0.0000    0.0000   -0.0000    0.0000    0.0000
   59 NP9    3py        0.0000   -0.0000   -0.0000   -0.0000   -0.0000    0.0000    0.0000   -0.0000    0.0000    0.0000
   60 NP9    4py        0.0001   -0.0000   -0.0000   -0.0000   -0.0000    0.0000    0.0000   -0.0000    0.0000    0.0000
   61 NP9    5py       -0.0000    0.0000   -0.0000   -0.0000    0.0000    0.0000    0.0000   -0.0000    0.0000   -0.0000
   62 NP9    6py        0.0000   -0.0000   -0.0000   -0.0000   -0.0000   -0.0000    0.0001   -0.0001    0.0002    0.0000
   63 NP9    7py        0.0000    0.0000   -0.0000   -0.0000   -0.0000   -0.0000    0.0003   -0.0002    0.0003    0.0000
   64 NP9    2pz       -0.0000   -0.0000   -0.0000    0.0000   -0.0000    0.0000   -0.0000    0.0000   -0.0000    0.0000
   65 NP9    3pz        0.0000    0.0000    0.0000   -0.0000   -0.0000    0.0000   -0.0000    0.0000   -0.0000    0.0000
   66 NP9    4pz        0.0000    0.0001    0.0001   -0.0000   -0.0000    0.0000   -0.0000    0.0000   -0.0000   -0.0000
   67 NP9    5pz       -0.0000   -0.0000   -0.0000    0.0000   -0.0001    0.0001   -0.0000    0.0000   -0.0000   -0.0001
   68 NP9    6pz       -0.0000    0.0000    0.0000   -0.0000   -0.0006    0.0006   -0.0000    0.0000   -0.0001    0.0001
   69 NP9    7pz       -0.0000    0.0000   -0.0000    0.0000   -0.0005    0.0006   -0.0000    0.0000   -0.0001   -0.0001
   70 NP9    3d2-       0.0000    0.0000   -0.0000    0.0000   -0.0000   -0.0000    0.0000   -0.0000    0.0000   -0.0000
   71 NP9    4d2-       0.9145    0.0559   -0.0606   -0.0024    0.0000   -0.0000    0.0000    0.0000    0.0000   -0.0000
   72 NP9    5d2-      -0.0003   -0.0000    0.0000    0.0000   -0.0000   -0.0000    0.0000   -0.0000    0.0000    0.0000
   73 NP9    6d2-       0.0001    0.0000   -0.0000   -0.0000   -0.0000   -0.0000    0.0002   -0.0000    0.0001    0.0000
   74 NP9    3d1-      -0.0000    0.0000   -0.0000   -0.0000    0.0000   -0.0000   -0.0000    0.0000    0.0000   -0.0000
   75 NP9    4d1-      -0.0320    0.9966   -0.0139   -0.0284   -0.0000   -0.0000   -0.0000    0.0000    0.0000   -0.0001
   76 NP9    5d1-       0.0000   -0.0002   -0.0000    0.0000    0.0000   -0.0000   -0.0000    0.0000    0.0000    0.0000
   77 NP9    6d1-      -0.0000    0.0000   -0.0000   -0.0000    0.0000    0.0000   -0.0000    0.0000    0.0001   -0.0000
   78 NP9    3d0       -0.0000    0.0000   -0.0000    0.0000   -0.0000   -0.0000   -0.0000    0.0000    0.0000   -0.0000
   79 NP9    4d0       -0.1448    0.0429   -0.0878    0.9310   -0.0000   -0.0000   -0.0000    0.0000    0.0000   -0.0000
   80 NP9    5d0        0.0000   -0.0000    0.0000   -0.0001   -0.0001   -0.0001   -0.0000    0.0000    0.0000    0.0000
   81 NP9    6d0       -0.0000   -0.0000   -0.0000    0.0000   -0.0006   -0.0006   -0.0001    0.0001    0.0002    0.0000
   82 NP9    3d1+       0.0000    0.0000    0.0000    0.0000    0.0000   -0.0000   -0.0000    0.0000   -0.0000   -0.0000
   83 NP9    4d1+       0.0708    0.0182    0.9913    0.1083   -0.0000   -0.0000   -0.0000    0.0000   -0.0000   -0.0000
   84 NP9    5d1+      -0.0000   -0.0000   -0.0002   -0.0000    0.0000   -0.0000   -0.0000    0.0000   -0.0000   -0.0000
   85 NP9    6d1+       0.0000    0.0000    0.0000    0.0000   -0.0000   -0.0001   -0.0000    0.0000   -0.0000    0.0000
   86 NP9    3d2+      -0.0000    0.0000    0.0000   -0.0000    0.0000   -0.0000   -0.0000    0.0000    0.0000   -0.0000
   87 NP9    4d2+      -0.3697    0.0388    0.0756   -0.3474   -0.0000   -0.0000   -0.0000    0.0000    0.0000   -0.0000
   88 NP9    5d2+       0.0001   -0.0000   -0.0000    0.0001    0.0000   -0.0000   -0.0000    0.0000    0.0000    0.0000
   89 NP9    6d2+      -0.0000    0.0000    0.0000   -0.0000    0.0000   -0.0000   -0.0001    0.0001    0.0001    0.0000
   90 NP9    4f3-       0.0000   -0.0000   -0.0000    0.0000   -0.0000   -0.0000    0.0000    0.0000   -0.0000    0.0118
   91 NP9    5f3-       0.0000   -0.0000   -0.0000   -0.0000    0.0000    0.0000    0.0000    0.0000   -0.0000   -0.0000
   92 NP9    4f2-       0.0000   -0.0000   -0.0001   -0.0000    0.0000   -0.0000   -0.0000    0.0000    0.0000   -0.0159
   93 NP9    5f2-       0.0000   -0.0000    0.0000    0.0000   -0.0000    0.0000   -0.0000    0.0000    0.0000    0.0000
   94 NP9    4f1-       0.0000    0.0000    0.0000   -0.0001    0.0000    0.0000   -0.0000    0.0000   -0.0000    0.0261
   95 NP9    5f1-      -0.0000    0.0000    0.0000    0.0000    0.0000    0.0000   -0.0000    0.0000   -0.0000   -0.0000
   96 NP9    4f0       -0.0000    0.0001    0.0000    0.0000   -0.0000    0.0000    0.0000   -0.0000    0.0000    0.9827
   97 NP9    5f0       -0.0000   -0.0000   -0.0000    0.0000   -0.0001    0.0001    0.0000   -0.0000    0.0000   -0.0006
   98 NP9    4f1+       0.0000   -0.0000    0.0000   -0.0001    0.0000    0.0000   -0.0000   -0.0000    0.0000    0.1135
   99 NP9    5f1+       0.0000   -0.0000    0.0000   -0.0000    0.0000    0.0000   -0.0000    0.0000    0.0000   -0.0001
  100 NP9    4f2+      -0.0000    0.0001   -0.0001   -0.0000    0.0000   -0.0000    0.0000   -0.0000    0.0000    0.1425
  101 NP9    5f2+      -0.0000    0.0000   -0.0000   -0.0000    0.0000    0.0000    0.0000   -0.0000    0.0000   -0.0000
  102 NP9    4f3+       0.0001    0.0000   -0.0000    0.0000    0.0000    0.0000   -0.0000   -0.0000    0.0000    0.0015
[...]
      4d2-     0.0000  0.0000  0.0000  0.0000  0.0000  0.0000  0.0000  0.0000  2.0000  0.0000  0.0000  0.0000
      5px      0.0000  0.0000  0.0000  0.0000  0.0000  0.0000  0.0000  0.0000  2.0000  0.0000  0.0000  0.0000
      5pz      0.0000  0.0000  0.0000  0.0000  0.0000  0.0000  0.0000  0.0000  2.0002  0.0000  0.0000  0.0000
      5py      0.0000  0.0000  0.0000  0.0000  0.0000  0.0000  0.0000  0.0000  2.0000  0.0000  0.0000  0.0000
      6s       0.0000  0.0000  0.0000  0.0000  0.0000  0.0000  0.0000  0.0000  1.9871  0.0000  0.0000  0.0000
      4f3+     0.0000  0.0000  0.0000  0.0000  0.0000  0.0000  0.0000  0.0000  2.0000  0.0000  0.0000  0.0000
      4f2+     0.0000  0.0000  0.0000  0.0000  0.0000  0.0000  0.0000  0.0000  2.0000  0.0000  0.0000  0.0000
      4f1+     0.0000  0.0000  0.0000  0.0000  0.0000  0.0000  0.0000  0.0000  2.0000  0.0000  0.0000  0.0000
      4f0      0.0000  0.0000  0.0000  0.0000  0.0000  0.0000  0.0000  0.0000  2.0000  0.0000  0.0000  0.0000
      4f1-     0.0000  0.0000  0.0000  0.0000  0.0000  0.0000  0.0000  0.0000  2.0000  0.0000  0.0000  0.0000
      4f2-     0.0000  0.0000  0.0000  0.0000  0.0000  0.0000  0.0000  0.0000  2.0000  0.0000  0.0000  0.0000
      4f3-     0.0000  0.0000  0.0000  0.0000  0.0000  0.0000  0.0000  0.0000  2.0000  0.0000  0.0000  0.0000
      5d2+     0.0000  0.0000  0.0000  0.0000  0.0000  0.0000  0.0000  0.0000  1.9999  0.0000  0.0000  0.0000
      5d1+     0.0000  0.0000  0.0000  0.0000  0.0000  0.0000  0.0000  0.0000  1.9998  0.0000  0.0000  0.0000
      5d0      0.0000  0.0000  0.0000  0.0000  0.0000  0.0000  0.0000  0.0000  1.9988  0.0000  0.0000  0.0000
      5d1-     0.0000  0.0000  0.0000  0.0000  0.0000  0.0000  0.0000  0.0000  1.9998  0.0000  0.0000  0.0000
      5d2-     0.0000  0.0000  0.0000  0.0000  0.0000  0.0000  0.0000  0.0000  1.9999  0.0000  0.0000  0.0000
      6px      0.0000  0.0000  0.0000  0.0000  0.0000  0.0000  0.0000  0.0000  1.9852  0.0000  0.0000  0.0000
      6pz      0.0000  0.0000  0.0000  0.0000  0.0000  0.0000  0.0000  0.0000  1.7842  0.0000  0.0000  0.0000
      6py      0.0000  0.0000  0.0000  0.0000  0.0000  0.0000  0.0000  0.0000  1.9716  0.0000  0.0000  0.0000
      7s       0.0000  0.0000  0.0000  0.0000  0.0000  0.0000  0.0000  0.0000  0.1407  0.0000  0.0000  0.0000
      5f3+     0.0000  0.0000  0.0000  0.0000  0.0000  0.0000  0.0000  0.0000  0.6755  0.0000  0.0000  0.0000
      5f2+     0.0000  0.0000  0.0000  0.0000  0.0000  0.0000  0.0000  0.0000  0.3225  0.0000  0.0000  0.0000
      5f1+     0.0000  0.0000  0.0000  0.0000  0.0000  0.0000  0.0000  0.0000  0.2943  0.0000  0.0000  0.0000
      5f0      0.0000  0.0000  0.0000  0.0000  0.0000  0.0000  0.0000  0.0000  1.0422  0.0000  0.0000  0.0000
      5f1-     0.0000  0.0000  0.0000  0.0000  0.0000  0.0000  0.0000  0.0000  0.2864  0.0000  0.0000  0.0000
      5f2-     0.0000  0.0000  0.0000  0.0000  0.0000  0.0000  0.0000  0.0000  0.3378  0.0000  0.0000  0.0000
      5f3-     0.0000  0.0000  0.0000  0.0000  0.0000  0.0000  0.0000  0.0000  0.6466  0.0000  0.0000  0.0000
      6d2+     0.0000  0.0000  0.0000  0.0000  0.0000  0.0000  0.0000  0.0000  0.1602  0.0000  0.0000  0.0000
      6d1+     0.0000  0.0000  0.0000  0.0000  0.0000  0.0000  0.0000  0.0000  0.4620  0.0000  0.0000  0.0000
      6d0      0.0000  0.0000  0.0000  0.0000  0.0000  0.0000  0.0000  0.0000  0.4591  0.0000  0.0000  0.0000
      6d1-     0.0000  0.0000  0.0000  0.0000  0.0000  0.0000  0.0000  0.0000  0.4387  0.0000  0.0000  0.0000
      6d2-     0.0000  0.0000  0.0000  0.0000  0.0000  0.0000  0.0000  0.0000  0.1992  0.0000  0.0000  0.0000
      7px      0.0000  0.0000  0.0000  0.0000  0.0000  0.0000  0.0000  0.0000  0.1097  0.0000  0.0000  0.0000
      7pz      0.0000  0.0000  0.0000  0.0000  0.0000  0.0000  0.0000  0.0000  0.0947  0.0000  0.0000  0.0000
      7py      0.0000  0.0000  0.0000  0.0000  0.0000  0.0000  0.0000  0.0000  0.1160  0.0000  0.0000  0.0000
      Total    6.1705  6.1182  6.1553  6.1741  6.1729  6.1777 15.0860  8.7356 91.5124  8.6010  8.7479  8.8173
 
      N-E     -0.1705 -0.1182 -0.1553 -0.1741 -0.1729 -0.1777  0.9140 -0.7356  1.4876 -0.6010 -0.7479 -0.8173
 
                H13     O14     H15     H16     H17     H18     H19   
      1s       0.7719  2.0002  0.7849  0.8379  0.8479  0.8485  0.8403
      2s       0.0000  1.8708  0.0000  0.0000  0.0000  0.0000  0.0000
      2px      0.0000  1.6277  0.0000  0.0000  0.0000  0.0000  0.0000
      2pz      0.0000  1.4485  0.0000  0.0000  0.0000  0.0000  0.0000
      2py      0.0000  1.6524  0.0000  0.0000  0.0000  0.0000  0.0000
      3s       0.0000  0.0000  0.0000  0.0000  0.0000  0.0000  0.0000
      3px      0.0000  0.0000  0.0000  0.0000  0.0000  0.0000  0.0000
      3pz      0.0000  0.0000  0.0000  0.0000  0.0000  0.0000  0.0000
      3py      0.0000  0.0000  0.0000  0.0000  0.0000  0.0000  0.0000
      4s       0.0000  0.0000  0.0000  0.0000  0.0000  0.0000  0.0000
      3d2+     0.0000  0.0000  0.0000  0.0000  0.0000  0.0000  0.0000
      3d1+     0.0000  0.0000  0.0000  0.0000  0.0000  0.0000  0.0000
      3d0      0.0000  0.0000  0.0000  0.0000  0.0000  0.0000  0.0000
      3d1-     0.0000  0.0000  0.0000  0.0000  0.0000  0.0000  0.0000
      3d2-     0.0000  0.0000  0.0000  0.0000  0.0000  0.0000  0.0000
      4px      0.0000  0.0000  0.0000  0.0000  0.0000  0.0000  0.0000
      4pz      0.0000  0.0000  0.0000  0.0000  0.0000  0.0000  0.0000
      4py      0.0000  0.0000  0.0000  0.0000  0.0000  0.0000  0.0000
      5s       0.0000  0.0000  0.0000  0.0000  0.0000  0.0000  0.0000
      4d2+     0.0000  0.0000  0.0000  0.0000  0.0000  0.0000  0.0000
      4d1+     0.0000  0.0000  0.0000  0.0000  0.0000  0.0000  0.0000
      4d0      0.0000  0.0000  0.0000  0.0000  0.0000  0.0000  0.0000
      4d1-     0.0000  0.0000  0.0000  0.0000  0.0000  0.0000  0.0000
      4d2-     0.0000  0.0000  0.0000  0.0000  0.0000  0.0000  0.0000
      5px      0.0000  0.0000  0.0000  0.0000  0.0000  0.0000  0.0000
      5pz      0.0000  0.0000  0.0000  0.0000  0.0000  0.0000  0.0000
      5py      0.0000  0.0000  0.0000  0.0000  0.0000  0.0000  0.0000
      6s       0.0000  0.0000  0.0000  0.0000  0.0000  0.0000  0.0000
      4f3+     0.0000  0.0000  0.0000  0.0000  0.0000  0.0000  0.0000
      4f2+     0.0000  0.0000  0.0000  0.0000  0.0000  0.0000  0.0000
      4f1+     0.0000  0.0000  0.0000  0.0000  0.0000  0.0000  0.0000
      4f0      0.0000  0.0000  0.0000  0.0000  0.0000  0.0000  0.0000
      4f1-     0.0000  0.0000  0.0000  0.0000  0.0000  0.0000  0.0000
      4f2-     0.0000  0.0000  0.0000  0.0000  0.0000  0.0000  0.0000
      4f3-     0.0000  0.0000  0.0000  0.0000  0.0000  0.0000  0.0000
      5d2+     0.0000  0.0000  0.0000  0.0000  0.0000  0.0000  0.0000
      5d1+     0.0000  0.0000  0.0000  0.0000  0.0000  0.0000  0.0000
      5d0      0.0000  0.0000  0.0000  0.0000  0.0000  0.0000  0.0000
      5d1-     0.0000  0.0000  0.0000  0.0000  0.0000  0.0000  0.0000
      5d2-     0.0000  0.0000  0.0000  0.0000  0.0000  0.0000  0.0000
      6px      0.0000  0.0000  0.0000  0.0000  0.0000  0.0000  0.0000
      6pz      0.0000  0.0000  0.0000  0.0000  0.0000  0.0000  0.0000
      6py      0.0000  0.0000  0.0000  0.0000  0.0000  0.0000  0.0000
      7s       0.0000  0.0000  0.0000  0.0000  0.0000  0.0000  0.0000
      5f3+     0.0000  0.0000  0.0000  0.0000  0.0000  0.0000  0.0000
      5f2+     0.0000  0.0000  0.0000  0.0000  0.0000  0.0000  0.0000
      5f1+     0.0000  0.0000  0.0000  0.0000  0.0000  0.0000  0.0000
      5f0      0.0000  0.0000  0.0000  0.0000  0.0000  0.0000  0.0000
      5f1-     0.0000  0.0000  0.0000  0.0000  0.0000  0.0000  0.0000
      5f2-     0.0000  0.0000  0.0000  0.0000  0.0000  0.0000  0.0000
      5f3-     0.0000  0.0000  0.0000  0.0000  0.0000  0.0000  0.0000
      6d2+     0.0000  0.0000  0.0000  0.0000  0.0000  0.0000  0.0000
      6d1+     0.0000  0.0000  0.0000  0.0000  0.0000  0.0000  0.0000
      6d0      0.0000  0.0000  0.0000  0.0000  0.0000  0.0000  0.0000
      6d1-     0.0000  0.0000  0.0000  0.0000  0.0000  0.0000  0.0000
      6d2-     0.0000  0.0000  0.0000  0.0000  0.0000  0.0000  0.0000
      7px      0.0000  0.0000  0.0000  0.0000  0.0000  0.0000  0.0000
      7pz      0.0000  0.0000  0.0000  0.0000  0.0000  0.0000  0.0000
      7py      0.0000  0.0000  0.0000  0.0000  0.0000  0.0000  0.0000
      Total    0.7719  8.5996  0.7849  0.8379  0.8479  0.8485  0.8403
 
      N-E      0.2281 -0.5996  0.2151  0.1621  0.1521  0.1515  0.1597
 
      Total electronic charge=  192.000000
 
      Total            charge=   -1.000000
--
 
 

      Expectation values of various properties for root number: 10
      -----------------------------------------------------------
 
 
++    Molecular properties:
      ---------------------
 
      Charge (e):
                      =   -1.0000
      Dipole Moment (Debye):
      Origin of the operator (Ang)=    0.0000    0.0000    0.0000
                   X= -2.6380E+00               Y= -8.5964E-01               Z=  1.1635E+00           Total=  3.0086E+00
      Center of Charge (Ang)
                     X=    0.54922624               Y=    0.17897148               Z=   -0.24222808
      Quadrupole Moment (Debye*Ang):
      Origin of the operator (Ang)=    0.3946    1.0627   -0.5543
                  XX= -1.2713E+02              XY=  4.8073E+00              XZ= -1.2609E-01              YY= -1.4454E+02
                  YZ= -3.2628E-01              ZZ= -1.3740E+02
      In traceless form (Debye*Ang)
                  XX=  1.3841E+01              XY=  7.2110E+00              XZ= -1.8914E-01              YY= -1.2269E+01
                  YZ= -4.8942E-01              ZZ= -1.5715E+00
--
 

      LoProp population analysis for root number: 10
      -----------------------------------------------
 
 
++    LoProp analysis:
      ----------------
 
 
 
  Input file to MOLDEN was generated!
 
 
++    Static properties:
      ------------------
 
 
      LoProp Charges per center
 

                   C1       C2       C3       C4       C5       C6       S7       O8       NP9      O10   
      Nuclear      6.0000   6.0000   6.0000   6.0000   6.0000   6.0000  16.0000   8.0000  93.0000   8.0000
      Electronic  -6.1141  -6.1274  -6.0983  -6.1127  -6.1144  -6.1211 -15.0074  -8.8153 -90.4835  -8.9948
 
      Total       -0.1141  -0.1274  -0.0983  -0.1127  -0.1144  -0.1211   0.9926  -0.8153   2.5165  -0.9948
 

                   O11      O12      H13      O14      H15      H16      H17      H18      H19   
      Nuclear      8.0000   8.0000   1.0000   8.0000   1.0000   1.0000   1.0000   1.0000   1.0000
      Electronic  -8.8081  -8.9569  -0.7959  -9.0053  -0.8419  -0.8969  -0.9039  -0.9042  -0.8979
 
      Total       -0.8081  -0.9569   0.2041  -1.0053   0.1581   0.1031   0.0961   0.0958   0.1021
--
 
 
      Natural Bond Order analysis for root number: 10
 
++    Natural Bond Order analysis
      ---------------------------
      Based on LoProp computed density
      -------------------------------------------------------------------------------------
      Atom A       Atom B       Bond Order | Atom A       Atom B       Bond Order
        C1           C2             0.998  |   NP9          O14            5.000
        C2           C3             0.998  |   O12          H13            0.996
        C3           H15            1.000  |   C1           C6             0.993
        C4           C5             0.997  |   C1           H19            0.992
        C5           C6             0.997  |   C2           S7             0.985
        O8           NP9            2.000  |   C3           C4             0.990
        NP9          O10            4.000  |   C4           H16            0.991
        NP9          O12            3.000  |   C5           H17            0.989
        C6           H18            0.992  |
      -------------------------------------------------------------------------------------
      NBO located    115.999 core electrons.
      NBO located     23.094 lone pair electrons.
      NBO located     53.836 electrons involved in   17 bonds.
      NBO analysis, and just that ONLY, did not converge to a
      proper answer, sorry. Calculation will continue as normal.
--
 
--
 
 
  Input file to MOLDEN was generated!
 
 
  Input file to MOLDEN was generated!
 
 
  Input file to MOLDEN was generated!
 
 
  Input file to MOLDEN was generated!
 
 
  Input file to MOLDEN was generated!
 
 
  Input file to MOLDEN was generated!
 
 
  Input file to MOLDEN was generated!
 
 
  Input file to MOLDEN was generated!
 
 
  Input file to MOLDEN was generated!
 
 
  Input file to MOLDEN was generated!
 
 
  Input file to MOLDEN was generated!
 
      Average orbitals are written to the RASORB file
      Natural orbitals for root   1 are written to the RASORB.1 file
      Natural orbitals for root   2 are written to the RASORB.2 file
      Natural orbitals for root   3 are written to the RASORB.3 file
      Natural orbitals for root   4 are written to the RASORB.4 file
      Natural orbitals for root   5 are written to the RASORB.5 file
      Natural orbitals for root   6 are written to the RASORB.6 file
      Natural orbitals for root   7 are written to the RASORB.7 file
      Natural orbitals for root   8 are written to the RASORB.8 file
      Natural orbitals for root   9 are written to the RASORB.9 file
      Natural orbitals for root  10 are written to the RASORB.10 file
      Spin density orbitals for root   1 are written to the SPDORB.1 file
      Spin density orbitals for root   2 are written to the SPDORB.2 file
      Spin density orbitals for root   3 are written to the SPDORB.3 file
      Spin density orbitals for root   4 are written to the SPDORB.4 file
      Spin density orbitals for root   5 are written to the SPDORB.5 file
      Spin density orbitals for root   6 are written to the SPDORB.6 file
      Spin density orbitals for root   7 are written to the SPDORB.7 file
      Spin density orbitals for root   8 are written to the SPDORB.8 file
      Spin density orbitals for root   9 are written to the SPDORB.9 file
      Spin density orbitals for root  10 are written to the SPDORB.10 file
 
 ###############################################################################
 ###############################################################################
 ###                                                                         ###
 ###                                                                         ###
 ###    RunFile label Unique Atom Name                                       ###
 ###    was used       42 times                                              ###
 ###                                                                         ###
 ###                                                                         ###
 ###############################################################################
 ###############################################################################
 ###############################################################################
 ###############################################################################
 ###                                                                         ###
 ###                                                                         ###
 ###    RunFile label BirthCertificate                                       ###
 ###    was used       74 times                                              ###
 ###                                                                         ###
 ###                                                                         ###
 ###############################################################################
 ###############################################################################
 ###############################################################################
 ###############################################################################
 ###                                                                         ###
 ###                                                                         ###
 ###    RunFile label Unique Coordinat                                       ###
 ###    was used       52 times                                              ###
 ###                                                                         ###
 ###                                                                         ###
 ###############################################################################
 ###############################################################################
 ###############################################################################
 ###############################################################################
 ###                                                                         ###
 ###                                                                         ###
 ###    RunFile label nBas                                                   ###
 ###    was used       79 times                                              ###
 ###                                                                         ###
 ###                                                                         ###
 ###############################################################################
 ###############################################################################
--- Stop Module: rasscf at Fri Nov 16 15:35:19 2018 /rc=_RC_ALL_IS_WELL_ ---
*** files: NpO2_C6H5SO2_OH-m1-triplet.casscf.MB.LprOrb NpO2_C6H5SO2_OH-m1-triplet.casscf.MB.rasscf.molden.4 NpO2_C6H5SO2_OH-m1-triplet.casscf.MB.rasscf.molden.7
           NpO2_C6H5SO2_OH-m1-triplet.casscf.MB.rasscf.molden.8 NpO2_C6H5SO2_OH-m1-triplet.casscf.MB.rasscf.molden.5 NpO2_C6H5SO2_OH-m1-triplet.casscf.MB.rasscf.molden.3
           NpO2_C6H5SO2_OH-m1-triplet.casscf.MB.rasscf.molden.9 NpO2_C6H5SO2_OH-m1-triplet.casscf.MB.rasscf.molden.10 NpO2_C6H5SO2_OH-m1-triplet.casscf.MB.rasscf.molden
           NpO2_C6H5SO2_OH-m1-triplet.casscf.MB.rasscf.molden.1 NpO2_C6H5SO2_OH-m1-triplet.casscf.MB.rasscf.molden.2 NpO2_C6H5SO2_OH-m1-triplet.casscf.MB.rasscf.molden.6
           NpO2_C6H5SO2_OH-m1-triplet.casscf.MB.LoProp.molden NpO2_C6H5SO2_OH-m1-triplet.casscf.MB.RasOrb.2 NpO2_C6H5SO2_OH-m1-triplet.casscf.MB.RasOrb.8
           NpO2_C6H5SO2_OH-m1-triplet.casscf.MB.RasOrb.4 NpO2_C6H5SO2_OH-m1-triplet.casscf.MB.RasOrb.7 NpO2_C6H5SO2_OH-m1-triplet.casscf.MB.RasOrb.10
           NpO2_C6H5SO2_OH-m1-triplet.casscf.MB.RasOrb.1 NpO2_C6H5SO2_OH-m1-triplet.casscf.MB.RasOrb.5 NpO2_C6H5SO2_OH-m1-triplet.casscf.MB.RasOrb.9
           NpO2_C6H5SO2_OH-m1-triplet.casscf.MB.RasOrb NpO2_C6H5SO2_OH-m1-triplet.casscf.MB.RasOrb.6 NpO2_C6H5SO2_OH-m1-triplet.casscf.MB.RasOrb.3
           NpO2_C6H5SO2_OH-m1-triplet.casscf.MB.rasscf.h5 NpO2_C6H5SO2_OH-m1-triplet.casscf.MB.SpdOrb.8 NpO2_C6H5SO2_OH-m1-triplet.casscf.MB.SpdOrb.1
           NpO2_C6H5SO2_OH-m1-triplet.casscf.MB.SpdOrb.5 NpO2_C6H5SO2_OH-m1-triplet.casscf.MB.SpdOrb.7 NpO2_C6H5SO2_OH-m1-triplet.casscf.MB.SpdOrb.4
           NpO2_C6H5SO2_OH-m1-triplet.casscf.MB.SpdOrb.10 NpO2_C6H5SO2_OH-m1-triplet.casscf.MB.SpdOrb.6 NpO2_C6H5SO2_OH-m1-triplet.casscf.MB.SpdOrb.9
           NpO2_C6H5SO2_OH-m1-triplet.casscf.MB.SpdOrb.2 NpO2_C6H5SO2_OH-m1-triplet.casscf.MB.SpdOrb.3 xmldump
    saved to directory /home/vallet/John-methylsulfonyl/NpO2_C6H5SO2_OH-m1/optg-freq-pbe0/SO-XMS
--- Module rasscf spent 1 minute 2 seconds ---

>>> COPY NpO2_C6H5SO2_OH-m1-triplet.casscf.MB.RasOrb /home/vallet/John-methylsulfonyl/NpO2_C6H5SO2_OH-m1/optg-freq-pbe0/SO-XMS/NpO2_C6H5SO2_OH-m1-triplet.casscf.MB.RasOrb_singlets

>>> COPY NpO2_C6H5SO2_OH-m1-triplet.casscf.MB.rasscf.molden /home/vallet/John-methylsulfonyl/NpO2_C6H5SO2_OH-m1/optg-freq-pbe0/SO-XMS/NpO2_C6H5SO2_OH-m1-triplet.casscf.MB.rasscf_singlets.molden

    Timing: Wall=277.55 User=1803.17 System=54.05
