   This run of MOLCAS is using the pymolcas driver

                             OPE
                             OPE          NMOL  CASOP  ENMOLC A   SO
                 OPE        NMOLC        AS  OP EN  MO LC     AS  OP
                OPENM       OL CA        SO  PE NM  OL CA     SOP EN
                OP EN      MO   LC       AS  OP ENMOL  CASO   PENMOL
                OP  EN     MO   LC       AS  OP EN     MO     LC ASO
               OP   E  NMOL  C  AS       OP  EN MO     LC     AS  OP
               OP  E   NMO   LC AS        OPEN  MO     LCASOP EN   M
               O  PEN   MO  LCA  SO
            OPE   NMO   L   CAS    OP
        OPENMOL  CASOP     ENMOL   CASOPE
     OPENMOLCA   SOPENMOLCASOPEN   MOLCASOPE
    OPENMOLCAS   OP           EN   MOL    CAS
    OPENMOLCAS       OP  ENM        O     LCA
    OPENMOLCAS    OPEN  MOLCASO     P  E  NMO
    OPENMOLCAS     OP               E  N  MOL
    OPENMOLCA   SO           PENM   O  L  CAS    OPEN    MO    LCAS
    OPENMOLCA   SOP           ENM   O  L  CAS   OP  EN  MOLC  AS   O
    OPENMOLCA   SOPE           NM      O  LCA   S      OP  EN MO
    OPENMOLC                AS         O  PEN   M      OL  CA  SOPE
    OPENMO        LCASOPE  NMOL        C  ASO   P      ENMOLC     AS
    OPE     NMO      LCA  SO     P     E   NM   OL  CA SO  PE N   MO
          OPENMOLCA            SOPE   NMO        LCAS  O    P  ENMO
     OPENMOLCASOPENMOLCASOPENMOLCASOPENMOLCA
        OPENMOLCASOPENMOLCASOPENMOLCASOPE
            OPENMOLCASOPENMOLCASOPENM
               OPENMOLCASOPENMOLCA        version: 18.09
                   OPENMOLCASO
                       OPE                tag: 50-g6d6e5e5-dirty

 OpenMolcas is free software; you can redistribute it and/or modify it
 under the terms of the GNU Lesser General Public License version 2.1.
 OpenMolcas is distributed in the hope that it will be useful, but it
 is provided "as is" and without any express or implied warranties.
 For more details see the full text of the license in the file
 LICENSE or in <http://www.gnu.org/licenses/>.

                 Copyright (C) The OpenMolcas Authors
           For the author list and the recommended citation,
                   consult the file CONTRIBUTORS.md

           *************************************************
           * pymolcas version py2.04                       *
           *   build 3b3f1139d1f9af0cd96dc01c0ce9d5c0      *
           *   (after the EMIL interpreter by V. Veryazov) *
           *************************************************

configuration info
------------------
C Compiler ID: Intel
C flags: -std=gnu99 -qopenmp
Fortran Compiler ID: Intel
Fortran flags: -fpp -i8 -r8 -heap-arrays -qopenmp
Definitions: _MOLCAS_;_I8_;_LINUX_;_MKL_;_FDE_
Parallel: OFF (GA=OFF)


   ----------------------------------------------------------------------------------------------------------------------------
  |
  |           Project: NpO2_C6H5SO2_OH-m1-triplet.rassi-SO-casscf-xmscaspt2.VTZP
  |    Submitted from: /home/vallet/John-methylsulfonyl/NpO2_C6H5SO2_OH-m1/optg-freq-pbe0/SO-XMS
  |      Scratch area: /state/partition1/vallet/499030.phlam-s-sakura/NpO2_C6H5SO2_OH-m1-triplet.rassi-SO-casscf-xmscaspt2.VTZP
  |   Save outputs to: /home/vallet/John-methylsulfonyl/NpO2_C6H5SO2_OH-m1/optg-freq-pbe0/SO-XMS
  |            Molcas: /home/pcmt/OpenMolcas/OpenMolcas-20181005
  |
  | Scratch area is empty
  |
  |    MOLCAS_DRIVER = /home/pcmt/OpenMolcas/OpenMolcas-20181005/sbin/pymolcas
  |   MOLCAS_LICENSE = /home/pcmt/molcas/license
  |    MOLCAS_MOLDEN = ON
  |    MOLCAS_NPROCS = 1
  |    MOLCAS_SOURCE = /home/pcmt/OpenMolcas/OpenMolcas-20181005
  | MOLCAS_STRUCTURE = 0
  |
   ----------------------------------------------------------------------------------------------------------------------------

++ ---------   Input file   ---------

&GATEWAY
   COORD=$HomeDir/NpO2_C6H5SO2_OH-m1-triplet.pbe0-zaxis.xyz
   BASIS=ANO-RCC-VTZP
   Group=Nosym
   ANGM=0.0 0.0 0.0
   RICD

&SEWARD

>>> COPY $HomeDir/NpO2_C6H5SO2_OH-m1-triplet.casscf.MB.RunFile RUNFIL1

>>> COPY $Project.RunFile RUNFIL2

>>> COPY $HomeDir/NpO2_C6H5SO2_OH-m1-triplet.casscf.MB.RasOrb_triplets INPORB

&EXPBAS

>>> COPY $Project.ExpOrb $HomeDir/$Project.ExpOrb_triplets

>>> COPY $HomeDir/NpO2_C6H5SO2_OH-m1-triplet.casscf.MB.RasOrb_singlets INPORB

&EXPBAS

>>> COPY $Project.ExpOrb $HomeDir/$Project.ExpOrb_singlets

>>> COPY $HomeDir/$Project.ExpOrb_triplets INPORB

&RASSCF
   Spin=3
   Symmetry=1
   Nactel=2 0 0
   Inactive=95
   Ras2=4
   CIRoots=6 6 1
   Lumorb

>>> COPY $Project.JobIph $Project.JobIph_triplets

>>> COPY $Project.RasOrb $Project.RasOrb_triplets

&CASPT2
    IPEA=0.0
    XMUL= ALL
    THRESHOLDS= 1.0D-09 1.0D-07
    MAXITER=150
    CONVERGENCE=1.0D-6
    IMAG=0.1

>>> COPY $Project.JobMix $Project.JobMix_triplets

>>> COPY $HomeDir/$Project.ExpOrb_singlets INPORB

&RASSCF
   Spin=1
   Symmetry=1
   Nactel=2 0 0
   Inactive=95
   Ras2=4
   CIRoots=10 10 1
   Lumorb

>>> COPY $Project.JobIph $Project.JobIph_singlets

&CASPT2
    IPEA=0.0
    XMUL= ALL
    THRESHOLDS= 1.0D-09 1.0D-07
    MAXITER=150
    CONVERGENCE=1.0D-6
    IMAG=0.1

>>> COPY $Project.JobMix $Project.JobMix_singlets

>>> COPY $Project.JobIph_triplets JOB001

>>> COPY $Project.JobIph_singlets JOB002

&RASSI
    EJob
    SPINorbit

>>> COPY $Project.JobMix_triplets JOB001

>>> COPY $Project.JobMix_singlets JOB002

&RASSI
    EJob
    SPINorbit

-- ----------------------------------

--- Start Module: gateway at Fri Nov 16 15:50:20 2018 ---
 
()()()()()()()()()()()()()()()()()()()()()()()()()()()()()()()()()()()()()()()()()()()()()()()()()()

                                              &GATEWAY

                                   only a single process is used
                       available to each process: 32 GB of memory, 8 threads
()()()()()()()()()()()()()()()()()()()()()()()()()()()()()()()()()()()()()()()()()()()()()()()()()()
 
 
++    Symmetry information:
      ---------------------
 
                    Character Table for C1 
 
                             E  
                    a        1  x, y, xy, Rz, z, xz, Ry, yz, Rx, I
--
 
 
++    Basis set information:
      ----------------------
 
 
      Basis set label: C.ANO-RCC...4S3P2D1F.
 
      Electronic valence basis set:
      ------------------
      Associated Effective Charge   6.000000 au
      Associated Actual Charge      6.000000 au
      Nuclear Model: Point charge
 
      Shell  nPrim  nBasis  Cartesian Spherical Contaminant
         s      14       4        X                  
         p       9       3        X                  
         d       4       2                 X         
         f       3       1                 X         
 
 
      Basis set label: S.ANO-RCC...5S4P2D1F.
 
      Electronic valence basis set:
      ------------------
      Associated Effective Charge  16.000000 au
      Associated Actual Charge     16.000000 au
      Nuclear Model: Point charge
 
      Shell  nPrim  nBasis  Cartesian Spherical Contaminant
         s      17       5        X                  
         p      12       4        X                  
         d       5       2                 X         
         f       4       1                 X         
 
 
      Basis set label: O.ANO-RCC...4S3P2D1F.
 
      Electronic valence basis set:
      ------------------
      Associated Effective Charge   8.000000 au
      Associated Actual Charge      8.000000 au
      Nuclear Model: Point charge
 
      Shell  nPrim  nBasis  Cartesian Spherical Contaminant
         s      14       4        X                  
         p       9       3        X                  
         d       4       2                 X         
         f       3       1                 X         
 
 
      Basis set label: NP.ANO-RCC...9S8P6D4F2G1H.
 
      Electronic valence basis set:
      ------------------
      Associated Effective Charge  93.000000 au
      Associated Actual Charge     93.000000 au
      Nuclear Model: Point charge
 
      Shell  nPrim  nBasis  Cartesian Spherical Contaminant
         s      26       9        X                  
         p      23       8        X                  
         d      17       6                 X         
         f      13       4                 X         
         g       5       2                 X         
         h       3       1                 X         
 
 
      Basis set label: O.ANO-RCC...4S3P2D1F.
 
      Electronic valence basis set:
      ------------------
      Associated Effective Charge   8.000000 au
      Associated Actual Charge      8.000000 au
      Nuclear Model: Point charge
 
      Shell  nPrim  nBasis  Cartesian Spherical Contaminant
         s      14       4        X                  
         p       9       3        X                  
         d       4       2                 X         
         f       3       1                 X         
 
 
      Basis set label: H.ANO-RCC...3S2P1D.
 
      Electronic valence basis set:
      ------------------
      Associated Effective Charge   1.000000 au
      Associated Actual Charge      1.000000 au
      Nuclear Model: Point charge
 
      Shell  nPrim  nBasis  Cartesian Spherical Contaminant
         s       8       3        X                  
         p       4       2        X                  
         d       3       1                 X         
 
 
      Basis set label: O.ANO-RCC...4S3P2D1F.
 
      Electronic valence basis set:
      ------------------
      Associated Effective Charge   8.000000 au
      Associated Actual Charge      8.000000 au
      Nuclear Model: Point charge
 
      Shell  nPrim  nBasis  Cartesian Spherical Contaminant
         s      14       4        X                  
         p       9       3        X                  
         d       4       2                 X         
         f       3       1                 X         
 
 
      Basis set label: H.ANO-RCC...3S2P1D.
 
      Electronic valence basis set:
      ------------------
      Associated Effective Charge   1.000000 au
      Associated Actual Charge      1.000000 au
      Nuclear Model: Point charge
 
      Shell  nPrim  nBasis  Cartesian Spherical Contaminant
         s       8       3        X                  
         p       4       2        X                  
         d       3       1                 X         
--
 
 
++    Molecular structure info:
      -------------------------
 
                    ************************************************ 
                    **** Cartesian Coordinates / Bohr, Angstrom **** 
                    ************************************************ 
 
     Center  Label                x              y              z                     x              y              z
        1      C1               3.254316       9.365615      -3.529441              1.722110       4.956070      -1.867700
        2      C2               2.291992       6.945556      -3.285591              1.212870       3.675430      -1.738660
        3      C3               1.698486       5.508911      -5.402292              0.898800       2.915190      -2.858770
        4      C4               2.086579       6.535750      -7.779454              1.104170       3.458570      -4.116710
        5      C5               3.052853       8.967884      -8.043676              1.615500       4.745600      -4.256530
        6      C6               3.637836      10.385954      -5.919983              1.925060       5.496010      -3.132720
        7      S7               1.818049       5.698942      -0.114536              0.962070       3.015750      -0.060610
        8      O8               3.391019       3.266959      -0.171360              1.794450       1.728800      -0.090680
        9      NP9              0.000000       0.000000       0.000000              0.000000       0.000000       0.000000
       10      O10             -0.355061      -0.049832      -3.366301             -0.187890      -0.026370      -1.781370
       11      O11             -0.943767       4.892766      -0.155392             -0.499420       2.589140      -0.082230
       12      O12              1.177753      -4.002364      -0.003496              0.623240      -2.117960      -0.001850
       13      H13              1.594740      -4.648972       1.634953              0.843900      -2.460130       0.865180
       14      O14              0.000000       0.000000       3.381457              0.000000       0.000000       1.789390
       15      H15              0.947490       3.614158      -5.160143              0.501390       1.912530      -2.730630
       16      H16              1.634349       5.431054      -9.445210              0.864860       2.873990      -4.998190
       17      H17              3.349483       9.753821      -9.912974              1.772470       5.161500      -5.245720
       18      H18              4.391591      12.281066      -6.121503              2.323930       6.498860      -3.239360
       19      H19              3.702710      10.447181      -1.844713              1.959390       5.528410      -0.976180
 
                    ************************************************* 
                    **** InterNuclear Distances / Bohr, Angstrom **** 
                    ************************************************* 
 
     Atom centers         Bohr        Angstrom
   13 H13      12 O12     1.810109        0.957869
   16 H16       4 C4      2.049295        1.084440
   17 H17       5 C5      2.049381        1.084486
   18 H18       6 C6      2.049440        1.084517
   19 H19       1 C1      2.051622        1.085672
   15 H15       3 C3      2.052491        1.086132
    2 C2        1 C1      2.615763        1.384202
    4 C4        3 C3      2.618380        1.385587
    6 C6        5 C5      2.619771        1.386323
    3 C3        2 C2      2.626142        1.389695
    6 C6        1 C1      2.627331        1.390324
    5 C5        4 C4      2.630356        1.391925
   11 O11       7 S7      2.877363        1.522635
    8 O8        7 S7      2.896896        1.532971
   14 O14       9 NP9     3.381457        1.789390
   10 O10       9 NP9     3.385341        1.791446
    7 S7        2 C2      3.440096        1.820420
   19 H19       2 C2      4.040747        2.138271
   16 H16       3 C3      4.044176        2.140086
   15 H15       2 C2      4.052141        2.144301
   17 H17       6 C6      4.052989        2.144749
   18 H18       5 C5      4.057603        2.147191
   16 H16       5 C5      4.060249        2.148591
   17 H17       4 C4      4.062366        2.149711
   18 H18       1 C1      4.063500        2.150311
   19 H19       6 C6      4.076246        2.157057
   15 H15       4 C4      4.085831        2.162129
   12 O12       9 NP9     4.172054        2.207756
   15 H15      10 O10     4.282444        2.266172
    4 C4        2 C2      4.517183        2.390390
    5 C5        1 C1      4.536198        2.400452
    6 C6        2 C2      4.537362        2.401068
    6 C6        4 C4      4.548417        2.406919
    5 C5        3 C3      4.558038        2.412010
    3 C3        1 C1      4.560959        2.413556
   11 O11       8 O8      4.629673        2.449918
   17 H17      16 H16     4.674057        2.473404
   18 H18      17 H17     4.674206        2.473483
   19 H19      18 H18     4.704107        2.489306
   16 H16      15 H15     4.704752        2.489647
    9 NP9       8 O8      4.711835        2.493396
    8 O8        2 C2      4.943518        2.615997
   11 O11       2 C2      4.947952        2.618344
   11 O11       9 NP9     4.985378        2.638149
   13 H13       9 NP9     5.179692        2.740975
    7 S7        1 C1      5.212383        2.758274
   14 O14      13 H13     5.215976        2.760176
    5 C5        2 C2      5.225714        2.765329
    4 C4        1 C1      5.237782        2.771715
    6 C6        3 C3      5.273958        2.790858
    7 S7        3 C3      5.292520        2.800681
   14 O14      12 O12     5.372516        2.843013
   19 H19       7 S7      5.393629        2.854186
   12 O12      10 O10     5.411145        2.863455
   15 H15      11 O11     5.500838        2.910918
   15 H15       7 S7      5.528322        2.925462
   15 H15       8 O8      5.565908        2.945352
--
 
 
            Nuclear Potential Energy           2316.44789317 au
 
--- Stop Module: gateway at Fri Nov 16 15:51:38 2018 /rc=_RC_ALL_IS_WELL_ ---
*** files: NpO2_C6H5SO2_OH-m1-triplet.rassi-SO-casscf-xmscaspt2.VTZP.RICDLib xmldump
    saved to directory /home/vallet/John-methylsulfonyl/NpO2_C6H5SO2_OH-m1/optg-freq-pbe0/SO-XMS
--- Module gateway spent 1 minute 18 seconds ---

--- Start Module: seward at Fri Nov 16 15:51:38 2018 ---
 
()()()()()()()()()()()()()()()()()()()()()()()()()()()()()()()()()()()()()()()()()()()()()()()()()()

                                              &SEWARD

                                   only a single process is used
                       available to each process: 32 GB of memory, 8 threads
()()()()()()()()()()()()()()()()()()()()()()()()()()()()()()()()()()()()()()()()()()()()()()()()()()
 
               SEWARD will generate:
                  Multipole Moment integrals up to order  2
                  Kinetic Energy integrals
                  Nuclear Attraction integrals (point charge)
                  One-Electron Hamiltonian integrals
                  Velocity integrals
                  Relativistic Douglas-Kroll-Hess integrals:
                    - Parametrization         : EXP
                    - DKH order of Hamiltonian: 2
                    - DKH order of Properties : 0
                         - multipole moment operators
                         - electric potential operators
                         - contact operators
                  Orbital angular momentum around ( 0.0000  0.0000  0.0000 )
                  Atomic mean-field integrals
                  RI decomposed two-electron repulsion integrals stored Cholesky style
                   - acCD auxiliary basis
                   - CD Threshold:   0.10E-03
 
                   Integrals are discarded if absolute value <: 0.10E-13
                   Integral cutoff threshold is set to       <: 0.10E-15
 
            Nuclear Potential Energy           2316.44789317 au
 
 
      Basis set specifications :
      Symmetry species         a  
      Basis functions          568
 
 
 Post_2Center_RI
 Detected lin. dependences in the auxiliary basis.
 # of AuxBas before l. d. removal:   4999
 # of AuxBas after  l. d. removal:   4986
 
 Sorry, Molden does not know how to handle
 functions with angular momentum larger than g
--- Stop Module: seward at Fri Nov 16 15:58:25 2018 /rc=_RC_ALL_IS_WELL_ ---
*** files: NpO2_C6H5SO2_OH-m1-triplet.rassi-SO-casscf-xmscaspt2.VTZP.GssOrb NpO2_C6H5SO2_OH-m1-triplet.rassi-SO-casscf-xmscaspt2.VTZP.guessorb.h5 xmldump
    saved to directory /home/vallet/John-methylsulfonyl/NpO2_C6H5SO2_OH-m1/optg-freq-pbe0/SO-XMS
--- Module seward spent 6 minutes 46 seconds ---

>>> COPY /home/vallet/John-methylsulfonyl/NpO2_C6H5SO2_OH-m1/optg-freq-pbe0/SO-XMS/NpO2_C6H5SO2_OH-m1-triplet.casscf.MB.RunFile RUNFIL1

>>> COPY NpO2_C6H5SO2_OH-m1-triplet.rassi-SO-casscf-xmscaspt2.VTZP.RunFile RUNFIL2

>>> COPY /home/vallet/John-methylsulfonyl/NpO2_C6H5SO2_OH-m1/optg-freq-pbe0/SO-XMS/NpO2_C6H5SO2_OH-m1-triplet.casscf.MB.RasOrb_triplets INPORB

--- Start Module: expbas at Fri Nov 16 15:58:26 2018 ---
 
()()()()()()()()()()()()()()()()()()()()()()()()()()()()()()()()()()()()()()()()()()()()()()()()()()

                                              &EXPBAS

                                   only a single process is used
                       available to each process: 32 GB of memory, 8 threads
()()()()()()()()()()()()()()()()()()()()()()()()()()()()()()()()()()()()()()()()()()()()()()()()()()
 

 Header on input orbitals file:
* RASSCF average (pseudo-natural) orbitals

 Information from input runfile
           Number of symmetries    1
      Number of basis functions  129

 Information from expanded basis set runfile
           Number of symmetries    1
      Number of basis functions  568
 New orbitals have been built in file EXPORB
--- Stop Module: expbas at Fri Nov 16 15:58:27 2018 /rc=_RC_ALL_IS_WELL_ ---
*** files: NpO2_C6H5SO2_OH-m1-triplet.rassi-SO-casscf-xmscaspt2.VTZP.ExpOrb xmldump
    saved to directory /home/vallet/John-methylsulfonyl/NpO2_C6H5SO2_OH-m1/optg-freq-pbe0/SO-XMS

>>> COPY NpO2_C6H5SO2_OH-m1-triplet.rassi-SO-casscf-xmscaspt2.VTZP.ExpOrb /home/vallet/John-methylsulfonyl/NpO2_C6H5SO2_OH-m1/optg-freq-pbe0/SO-XMS/NpO2_C6H5SO2_OH-m1-triplet.rassi-SO-casscf-xmscaspt2.VTZP.ExpOrb_triplets

>>> COPY /home/vallet/John-methylsulfonyl/NpO2_C6H5SO2_OH-m1/optg-freq-pbe0/SO-XMS/NpO2_C6H5SO2_OH-m1-triplet.casscf.MB.RasOrb_singlets INPORB

--- Start Module: expbas at Fri Nov 16 15:58:27 2018 ---
 
()()()()()()()()()()()()()()()()()()()()()()()()()()()()()()()()()()()()()()()()()()()()()()()()()()

                                              &EXPBAS

                                   only a single process is used
                       available to each process: 32 GB of memory, 8 threads
()()()()()()()()()()()()()()()()()()()()()()()()()()()()()()()()()()()()()()()()()()()()()()()()()()
 

 Header on input orbitals file:
* RASSCF average (pseudo-natural) orbitals

 Information from input runfile
           Number of symmetries    1
      Number of basis functions  129

 Information from expanded basis set runfile
           Number of symmetries    1
      Number of basis functions  568
 New orbitals have been built in file EXPORB
--- Stop Module: expbas at Fri Nov 16 15:58:27 2018 /rc=_RC_ALL_IS_WELL_ ---
*** files: NpO2_C6H5SO2_OH-m1-triplet.rassi-SO-casscf-xmscaspt2.VTZP.ExpOrb xmldump
    saved to directory /home/vallet/John-methylsulfonyl/NpO2_C6H5SO2_OH-m1/optg-freq-pbe0/SO-XMS

>>> COPY NpO2_C6H5SO2_OH-m1-triplet.rassi-SO-casscf-xmscaspt2.VTZP.ExpOrb /home/vallet/John-methylsulfonyl/NpO2_C6H5SO2_OH-m1/optg-freq-pbe0/SO-XMS/NpO2_C6H5SO2_OH-m1-triplet.rassi-SO-casscf-xmscaspt2.VTZP.ExpOrb_singlets

>>> COPY /home/vallet/John-methylsulfonyl/NpO2_C6H5SO2_OH-m1/optg-freq-pbe0/SO-XMS/NpO2_C6H5SO2_OH-m1-triplet.rassi-SO-casscf-xmscaspt2.VTZP.ExpOrb_triplets INPORB

--- Start Module: rasscf at Fri Nov 16 15:58:27 2018 ---
 
()()()()()()()()()()()()()()()()()()()()()()()()()()()()()()()()()()()()()()()()()()()()()()()()()()

                                              &RASSCF

                                   only a single process is used
                       available to each process: 32 GB of memory, 8 threads
()()()()()()()()()()()()()()()()()()()()()()()()()()()()()()()()()()()()()()()()()()()()()()()()()()
 
 
      Header of the ONEINT file:
      --------------------------
      
      Integrals generated by seward 4.2.0  , Fri Nov 16 15:51:38 2018
 
 
      OrdInt status: non-squared
 
 
      Cartesian coordinates in Angstrom:
      -----------------------------------------------------
      No.  Label        X            Y            Z        
      -----------------------------------------------------
       1   C1         1.72211000   4.95607000  -1.86770000
       2   C2         1.21287000   3.67543000  -1.73866000
       3   C3         0.89880000   2.91519000  -2.85877000
       4   C4         1.10417000   3.45857000  -4.11671000
       5   C5         1.61550000   4.74560000  -4.25653000
       6   C6         1.92506000   5.49601000  -3.13272000
       7   S7         0.96207000   3.01575000  -0.06061000
       8   O8         1.79445000   1.72880000  -0.09068000
       9   NP9        0.00000000   0.00000000   0.00000000
      10   O10       -0.18789000  -0.02637000  -1.78137000
      11   O11       -0.49942000   2.58914000  -0.08223000
      12   O12        0.62324000  -2.11796000  -0.00185000
      13   H13        0.84390000  -2.46013000   0.86518000
      14   O14        0.00000000   0.00000000   1.78939000
      15   H15        0.50139000   1.91253000  -2.73063000
      16   H16        0.86486000   2.87399000  -4.99819000
      17   H17        1.77247000   5.16150000  -5.24572000
      18   H18        2.32393000   6.49886000  -3.23936000
      19   H19        1.95939000   5.52841000  -0.97618000
      -----------------------------------------------------
      Nuclear repulsion energy = 2316.44789317
 
++    Wave function specifications:
      -----------------------------
 
      Number of closed shell electrons         190
      Number of electrons in active shells       2
      Max number of holes in RAS1 space          0
      Max nr of electrons in RAS3 space          0
      Number of inactive orbitals               95
      Number of active orbitals                  4
      Number of secondary orbitals             469
      Spin quantum number                      1.0
      State symmetry                             1
--
 
++    Orbital specifications:
      -----------------------
 
      Symmetry species                           1
                                                 a
      Frozen orbitals                            0
      Inactive orbitals                         95
      Active orbitals                            4
      RAS1 orbitals                              0
      RAS2 orbitals                              4
      RAS3 orbitals                              0
      Secondary orbitals                       469
      Deleted orbitals                           0
      Number of basis functions                568
--
 
++    CI expansion specifications:
      ----------------------------
 
      Number of CSFs                             6
      Number of determinants                     6
      Number of root(s) required                 6
      Root chosen for geometry opt.              6
      CI roots used                              1     2     3     4     5     6
      weights                                0.167 0.167 0.167 0.167 0.167 0.167
      highest root included in the CI            6
      max. size of the explicit Hamiltonian      6
--
 
++    Optimization specifications:
      ----------------------------
 
      RASSCF algorithm: LK RI/DF
      Maximum number of macro iterations       200
      Maximum number of SX iterations          100
      Threshold for RASSCF energy            0.100E-07
      Threshold for max MO rotation          0.100E+00
      Threshold for max BLB element          0.100E-03
      Level shift parameter                  0.500E+00
      Make Quasi-Newton update
--
 
      The MO-coefficients are taken from the file:
      INPORB                                                                                                                          
      Title:Basis set expanded orbital file EXPORB                                         
 
      Total molecular charge   -1.00
 
      ************************************************************************************************************************
      *                                                                                                                      *
      *                                            Wave function control section                                             *
      *                                                                                                                      *
      ************************************************************************************************************************
 
 
                                         RASSCF iterations: Energy and convergence statistics
                                         ----------------------------------------------------
 
      Iter CI   SX   CI       RASSCF       Energy    max ROT     max BLB   max BLB  Level Ln srch  Step   QN   Walltime
          iter iter root      energy       change     param      element    value   shift minimum  type update hh:mm:ss
 Nr of preliminary CI iterations:   1
      Total energies have been shifted. Add               -29000.00 au
        1   1   20    0  -740.22773921    0.00E+00  -0.37E-01   87 352 1 -0.22E+00*  0.51   0.00    SX    NO    0:06:16
        2   1   24    0  -741.03546083   -0.81E+00* -0.28E-01   60 130 1  0.93E-01*  0.52   0.00    SX    NO    0:03:01
        3   1   24    0  -741.22720386   -0.19E+00*  0.20E-01   80 116 1  0.61E-01*  0.49   0.00    SX    NO    0:03:11
        4   1   23    0  -741.28225231   -0.55E-01*  0.13E-01   80 116 1  0.40E-01*  0.51   0.00    SX    NO    0:02:48
        5   1   23    0  -741.30014389   -0.18E-01*  0.15E-01   80 116 1  0.25E-01*  0.50   2.32    LS   YES    0:03:02
        6   1   23    0  -741.30854855   -0.84E-02*  0.71E-02   56 331 1  0.14E-01*  0.48   1.16    QN   YES    0:02:56
        7   1   21    0  -741.31084895   -0.23E-02*  0.22E-02   56 331 1 -0.80E-02*  0.51   0.90    QN   YES    0:02:59
        8   1   20    0  -741.31159593   -0.75E-03*  0.15E-02   95 114 1 -0.25E-02*  0.50   1.66    LS   YES    0:03:40
        9   1   18    0  -741.31173756   -0.14E-03* -0.20E-02   88 108 1  0.25E-02*  0.50   1.02    QN   YES    0:03:44
       10   1   17    0  -741.31183332   -0.96E-04* -0.10E-02   95 114 1 -0.92E-03*  0.50   1.52    LS   YES    0:03:20
       11   1   16    0  -741.31184603   -0.13E-04*  0.19E-02   92 107 1 -0.79E-03*  0.50   1.01    QN   YES    0:03:19
       12   1   14    0  -741.31186353   -0.18E-04*  0.20E-02   92 107 1 -0.51E-03*  0.50   2.06    LS   YES    0:03:22
       13   1   15    0  -741.31186983   -0.63E-05*  0.19E-02   55  98 1 -0.65E-03*  0.50   1.00    QN   YES    0:03:24
       14   1   14    0  -741.31187613   -0.63E-05* -0.38E-02   98 105 1  0.36E-03*  0.50   1.62    QN   YES    0:03:15
       15   1   14    0  -741.31188313   -0.70E-05* -0.52E-02   55  98 1  0.29E-03*  0.50   1.90    QN   YES    0:03:14
       16   1   14    0  -741.31188893   -0.58E-05* -0.37E-02   55  98 1  0.26E-03*  0.50   1.53    QN   YES    0:03:16
       17   1   13    0  -741.31189193   -0.30E-05*  0.26E-02   86 100 1  0.19E-03*  0.50   1.69    QN   YES    0:03:17
       18   1   12    0  -741.31189370   -0.18E-05*  0.86E-03   95 104 1 -0.20E-03*  0.50   1.46    QN   YES    0:03:17
       19   1   12    0  -741.31189435   -0.65E-06*  0.27E-03   86 100 1  0.15E-03*  0.50   1.51    QN   YES    0:03:17
       20   1   11    0  -741.31189463   -0.28E-06*  0.16E-03   86 100 1  0.88E-04   0.50   1.50    QN   YES    0:03:19
       21   1   10    0  -741.31189476   -0.12E-06*  0.15E-03   86 100 1  0.41E-04   0.50   1.48    QN   YES    0:03:21
       22   1    9    0  -741.31189481   -0.56E-07*  0.13E-03   95 104 1  0.25E-04   0.50   1.42    QN   YES    0:03:22
       23   1    9    0  -741.31189484   -0.25E-07*  0.14E-03   95 104 1  0.28E-04   0.50   1.76    QN   YES    0:03:24
       24   1    9    0  -741.31189485   -0.15E-07*  0.15E-03   95 104 1  0.18E-04   0.50   1.68    QN   YES    0:03:25
       25   1    8    0  -741.31189486   -0.10E-07*  0.16E-03   86 100 1 -0.14E-04   0.50   1.67    QN   YES    0:03:20
       26   1    8    0  -741.31189487   -0.73E-08   0.13E-03   86 100 1 -0.14E-04   0.50   2.50    QN   YES    0:03:18
      Convergence after 26 iterations
       27   1    8    0  -741.31189487   -0.50E-08   0.13E-03   86 100 1 -0.11E-04   0.50   2.50    QN   YES    0:03:17
 
      ************************************************************************************************************************
                                                      Wave function printout:
                       occupation of active orbitals, and spin coupling of open shells (u,d: Spin up or down)
      ************************************************************************************************************************
 
      Note: transformation to natural orbitals
      has been made, which may change the order of the CSFs.
 
      printout of CI-coefficients larger than  0.05 for root  1
      energy=  -29741.340496
      conf/sym  1111     Coeff  Weight
             1  uu00   0.56584 0.32018
             2  u0u0  -0.39718 0.15775
             3  u00u  -0.06487 0.00421
             5  0u0u   0.31834 0.10134
             6  00uu   0.64393 0.41465
 
      printout of CI-coefficients larger than  0.05 for root  2
      energy=  -29741.340368
      conf/sym  1111     Coeff  Weight
             1  uu00  -0.26997 0.07289
             2  u0u0  -0.55969 0.31326
             3  u00u   0.32644 0.10656
             4  0uu0   0.38102 0.14517
             5  0u0u   0.51831 0.26864
             6  00uu  -0.30574 0.09348
 
      printout of CI-coefficients larger than  0.05 for root  3
      energy=  -29741.328422
      conf/sym  1111     Coeff  Weight
             1  uu00  -0.60443 0.36534
             2  u0u0   0.12034 0.01448
             3  u00u  -0.54669 0.29887
             4  0uu0   0.25023 0.06261
             5  0u0u   0.24001 0.05761
             6  00uu   0.44844 0.20110
 
      printout of CI-coefficients larger than  0.05 for root  4
      energy=  -29741.311461
      conf/sym  1111     Coeff  Weight
             1  uu00  -0.07991 0.00638
             2  u0u0   0.53966 0.29124
             3  u00u   0.40157 0.16126
             4  0uu0  -0.37121 0.13780
             5  0u0u   0.62559 0.39137
             6  00uu   0.10933 0.01195
 
      printout of CI-coefficients larger than  0.05 for root  5
      energy=  -29741.300362
      conf/sym  1111     Coeff  Weight
             1  uu00   0.47844 0.22890
             2  u0u0   0.34193 0.11692
             3  u00u  -0.44280 0.19607
             4  0uu0   0.40415 0.16334
             5  0u0u   0.36106 0.13036
             6  00uu  -0.40547 0.16440
 
      printout of CI-coefficients larger than  0.05 for root  6
      energy=  -29741.250260
      conf/sym  1111     Coeff  Weight
             1  uu00   0.07943 0.00631
             2  u0u0   0.32612 0.10635
             3  u00u   0.48273 0.23303
             4  0uu0   0.69944 0.48921
             5  0u0u  -0.22514 0.05069
             6  00uu   0.33825 0.11441
 
      Natural orbitals and occupation numbers for root  1
      sym 1:   0.420314   0.420314   0.579686   0.579686
 
      Natural orbitals and occupation numbers for root  2
      sym 1:   0.554556   0.445444   0.554556   0.445444
 
      Natural orbitals and occupation numbers for root  3
      sym 1:   0.743453   0.256547   0.256547   0.743453
 
      Natural orbitals and occupation numbers for root  4
      sym 1:   0.432437   0.567563   0.432437   0.567563
 
      Natural orbitals and occupation numbers for root  5
      sym 1:   0.559827   0.559827   0.440173   0.440173
 
      Natural orbitals and occupation numbers for root  6
      sym 1:   0.258709   0.741291   0.741291   0.258709
 
      ************************************************************************************************************************
      *                                                                                                                      *
      *                                                    Final results                                                     *
      *                                                                                                                      *
      ************************************************************************************************************************
 
 
++    Wave function specifications:
      -----------------------------
 
      Number of closed shell electrons         190
      Number of electrons in active shells       2
      Max number of holes in RAS1 space          0
      Max nr of electrons in RAS3 space          0
      Number of inactive orbitals               95
      Number of active orbitals                  4
      Number of secondary orbitals             469
      Spin quantum number                      1.0
      State symmetry                             1
--
 
++    Orbital specifications:
      -----------------------
 
      Symmetry species                           1
                                                 a
      Frozen orbitals                            0
      Inactive orbitals                         95
      Active orbitals                            4
      RAS1 orbitals                              0
      RAS2 orbitals                              4
      RAS3 orbitals                              0
      Secondary orbitals                       469
      Deleted orbitals                           0
      Number of basis functions                568
--
 
++    CI expansion specifications:
      ----------------------------
 
      Number of CSFs                             6
      Number of determinants                     6
      Number of root(s) required                 6
      CI roots used                              1     2     3     4     5     6
      weights                                0.167 0.167 0.167 0.167 0.167 0.167
      highest root included in the CI            6
      Root passed to geometry opt.               6
--
 
++    Final optimization conditions:
      ------------------------------
 
      Average CI energy                          -29741.31189487
      RASSCF energy for state  6                 -29741.25026016
      Super-CI energy                                -0.00000000
      RASSCF energy change                           -0.00000000
      Max change in MO coefficients              -0.130E-03
      Max non-diagonal density matrix element     0.133E-03
      Maximum BLB matrix element                 -0.114E-04
      (orbital pair  86, 100 in symmetry   1)
      Norm of electronic gradient            0.109E+00
--
 
 
      Final state energy(ies):
      ------------------------
 
::    RASSCF root number  1 Total energy: -29741.34049641
::    RASSCF root number  2 Total energy: -29741.34036759
::    RASSCF root number  3 Total energy: -29741.32842183
::    RASSCF root number  4 Total energy: -29741.31146089
::    RASSCF root number  5 Total energy: -29741.30036236
::    RASSCF root number  6 Total energy: -29741.25026016
 
++    Molecular orbitals:
      -------------------
 
      Pseudonatural active orbitals and approximate occupation numbers
 
 
      MOLECULAR ORBITALS FOR SYMMETRY SPECIES 1: a  
 
      INDEX  ENERGY  OCCUPATION COEFFICIENTS ...
          1-4373.1654    2.0000                                                                                                           
               245 NP9    1s     ( 1.0000)
          2 -828.8513    2.0000                                                                                                           
               246 NP9    2s     ( 1.0000)
          3 -693.1977    2.0000                                                                                                           
               270 NP9    2pz    ( 0.9986)
          4 -693.1960    2.0000                                                                                                           
               254 NP9    2px    (-0.1013) 262 NP9    2py    ( 0.9948)
          5 -693.1954    2.0000                                                                                                           
               254 NP9    2px    ( 0.9935) 262 NP9    2py    ( 0.1008)
          6 -213.2821    2.0000                                                                                                           
               247 NP9    3s     ( 1.0000)
          7 -175.0089    2.0000                                                                                                           
               263 NP9    3py    ( 0.9982)
          8 -175.0082    2.0000                                                                                                           
               271 NP9    3pz    ( 0.9983)
          9 -175.0076    2.0000                                                                                                           
               255 NP9    3px    ( 0.9979)
         10 -139.3670    2.0000                                                                                                           
               284 NP9    3d1-   ( 0.9957)
         11 -139.3663    2.0000                                                                                                           
               278 NP9    3d2-   ( 0.1876) 290 NP9    3d0    (-0.1263) 296 NP9    3d1+   ( 0.9695)
         12 -139.3662    2.0000                                                                                                           
               278 NP9    3d2-   ( 0.6266) 290 NP9    3d0    (-0.2150) 296 NP9    3d1+   (-0.1988) 302 NP9    3d2+   (-0.7191)
      
         13 -139.3661    2.0000                                                                                                           
               278 NP9    3d2-   ( 0.7535) 290 NP9    3d0    ( 0.2718) 302 NP9    3d2+   ( 0.5948)
         14 -139.3657    2.0000                                                                                                           
               290 NP9    3d0    ( 0.9295) 296 NP9    3d1+   ( 0.1043) 302 NP9    3d2+   (-0.3503)
         15  -92.2617    2.0000                                                                                                           
               181 S7     1s     ( 1.0000)
         16  -56.4198    2.0000                                                                                                           
               248 NP9    4s     ( 1.0000)
         17  -43.6502    2.0000                                                                                                           
               264 NP9    4py    ( 0.9987)
         18  -43.6485    2.0000                                                                                                           
               272 NP9    4pz    ( 0.9987)
         19  -43.6480    2.0000                                                                                                           
               256 NP9    4px    ( 0.9990)
         20  -29.9952    2.0000                                                                                                           
               291 NP9    4d0    ( 0.8935) 303 NP9    4d2+   ( 0.4374)
         21  -29.9947    2.0000                                                                                                           
               285 NP9    4d1-   ( 0.9980)
         22  -29.9938    2.0000                                                                                                           
               279 NP9    4d2-   ( 0.1031) 297 NP9    4d1+   ( 0.9889)
         23  -29.9932    2.0000                                                                                                           
               279 NP9    4d2-   ( 0.9549) 291 NP9    4d0    (-0.1761) 297 NP9    4d1+   (-0.1268) 303 NP9    4d2+   ( 0.1997)
      
         24  -29.9928    2.0000                                                                                                           
               279 NP9    4d2-   ( 0.2630) 291 NP9    4d0    ( 0.4021) 303 NP9    4d2+   (-0.8741)
         25  -20.4134    2.0000                                                                                                           
               215 O8     1s     (-0.9995)
         26  -20.4088    2.0000                                                                                                           
               395 O11    1s     ( 0.9994)
         27  -20.3788    2.0000                                                                                                           
               469 O14    1s     ( 0.9997)
         28  -20.3777    2.0000                                                                                                           
               365 O10    1s     ( 0.9997)
         29  -20.3506    2.0000                                                                                                           
               425 O12    1s     ( 0.9999)
         30  -15.8756    2.0000                                                                                                           
               320 NP9    4f0    ( 0.9755) 324 NP9    4f1+   ( 0.1083) 328 NP9    4f2+   ( 0.1899)
         31  -15.8727    2.0000                                                                                                           
               312 NP9    4f2-   ( 0.7944) 320 NP9    4f0    (-0.1075) 328 NP9    4f2+   ( 0.5877)
         32  -15.8724    2.0000                                                                                                           
               312 NP9    4f2-   (-0.5986) 320 NP9    4f0    (-0.1428) 328 NP9    4f2+   ( 0.7781)
         33  -15.8708    2.0000                                                                                                           
               308 NP9    4f3-   ( 0.1514) 332 NP9    4f3+   ( 0.9837)
         34  -15.8708    2.0000                                                                                                           
               308 NP9    4f3-   ( 0.9850) 332 NP9    4f3+   (-0.1482)
         35  -15.8631    2.0000                                                                                                           
               316 NP9    4f1-   ( 0.9906)
         36  -15.8622    2.0000                                                                                                           
               320 NP9    4f0    (-0.1274) 324 NP9    4f1+   ( 0.9837)
         37  -13.1320    2.0000                                                                                                           
               249 NP9    5s     ( 1.0005)
         38  -11.1507    2.0000                                                                                                           
                 1 C1     1s     ( 0.1158) 121 C5     1s     ( 0.9523) 151 C6     1s     ( 0.2768)
         39  -11.1496    2.0000                                                                                                           
                 1 C1     1s     (-0.8902)  31 C2     1s     (-0.2575) 121 C5     1s     ( 0.2056) 151 C6     1s     (-0.3179)
      
         40  -11.1480    2.0000                                                                                                           
                 1 C1     1s     ( 0.2729)  31 C2     1s     ( 0.3204) 121 C5     1s     ( 0.2153) 151 C6     1s     (-0.8829)
      
         41  -11.1471    2.0000                                                                                                           
                 1 C1     1s     (-0.3510)  31 C2     1s     ( 0.9116) 151 C6     1s     ( 0.2144)
         42  -11.1426    2.0000                                                                                                           
                91 C4     1s     ( 0.9949)
         43  -11.1352    2.0000                                                                                                           
                61 C3     1s     ( 0.9975)
         44   -9.0452    2.0000                                                                                                           
               273 NP9    5pz    ( 0.9982)
         45   -9.0230    2.0000                                                                                                           
               265 NP9    5py    ( 0.9953)
         46   -9.0190    2.0000                                                                                                           
               257 NP9    5px    ( 0.9941)
         47   -9.0018    2.0000                                                                                                           
               182 S7     2s     ( 0.9989)
         48   -6.6342    2.0000                                                                                                           
               190 S7     2py    ( 0.6846) 194 S7     2pz    (-0.7276)
         49   -6.6341    2.0000                                                                                                           
               186 S7     2px    ( 0.9560) 190 S7     2py    (-0.1772) 194 S7     2pz    (-0.2358)
         50   -6.6322    2.0000                                                                                                           
               186 S7     2px    ( 0.2900) 190 S7     2py    ( 0.7072) 194 S7     2pz    ( 0.6443)
         51   -4.3409    2.0000                                                                                                           
               292 NP9    5d0    ( 0.9927)
         52   -4.3336    2.0000                                                                                                           
               286 NP9    5d1-   ( 0.9841) 298 NP9    5d1+   (-0.1676)
         53   -4.3325    2.0000                                                                                                           
               286 NP9    5d1-   ( 0.1668) 298 NP9    5d1+   ( 0.9800)
         54   -4.3202    2.0000                                                                                                           
               280 NP9    5d2-   ( 0.7719) 304 NP9    5d2+   (-0.6328)
         55   -4.3192    2.0000                                                                                                           
               280 NP9    5d2-   ( 0.6335) 304 NP9    5d2+   ( 0.7708)
         56   -2.1148    2.0000                                                                                                           
               250 NP9    6s     ( 0.9684)
         57   -1.3104    2.0000                                                                                                           
               274 NP9    6pz    ( 0.5541) 366 O10    2s     (-0.4223) 375 O10    2pz    (-0.1214) 470 O14    2s     ( 0.4238)
               479 O14    2pz    (-0.1231)
         58   -1.2707    2.0000                                                                                                           
               183 S7     3s     ( 0.3521) 216 O8     2s     ( 0.4944) 396 O11    2s     ( 0.4786) 399 O11    2px    ( 0.1019)
      
         59   -1.1597    2.0000                                                                                                           
               187 S7     3px    (-0.1957) 216 O8     2s     (-0.5862) 396 O11    2s     ( 0.5931)
         60   -1.1208    2.0000                                                                                                           
               258 NP9    6px    ( 0.1241) 266 NP9    6py    (-0.3689) 426 O12    2s     ( 0.7528) 455 H13    1s     ( 0.1405)
      
         61   -1.0761    2.0000                                                                                                           
               250 NP9    6s     (-0.2455) 258 NP9    6px    (-0.1205) 293 NP9    6d0    ( 0.1263) 366 O10    2s     ( 0.6344)
               470 O14    2s     ( 0.6254)
         62   -1.0634    2.0000                                                                                                           
                 2 C1     2s     ( 0.3341)  32 C2     2s     ( 0.2200)  62 C3     2s     ( 0.3121)  92 C4     2s     ( 0.3320)
               122 C5     2s     ( 0.3008) 152 C6     2s     ( 0.3312)
         63   -0.9877    2.0000                                                                                                           
               258 NP9    6px    ( 0.8988) 266 NP9    6py    ( 0.2839) 366 O10    2s     ( 0.1068) 470 O14    2s     ( 0.1056)
      
         64   -0.9589    2.0000                                                                                                           
               258 NP9    6px    ( 0.2883) 266 NP9    6py    (-0.7863) 426 O12    2s     (-0.3929)
         65   -0.9318    2.0000                                                                                                           
                 2 C1     2s     (-0.3918)  32 C2     2s     (-0.4154)  62 C3     2s     (-0.1537)  92 C4     2s     ( 0.3618)
               122 C5     2s     ( 0.5290) 152 C6     2s     ( 0.1717) 183 S7     3s     (-0.1109) 216 O8     2s     ( 0.1152)
               266 NP9    6py    (-0.1950) 396 O11    2s     ( 0.1139)
         66   -0.9245    2.0000                                                                                                           
                 2 C1     2s     (-0.3986)  32 C2     2s     ( 0.1309)  62 C3     2s     ( 0.5572)  92 C4     2s     ( 0.4462)
               122 C5     2s     (-0.1132) 152 C6     2s     (-0.5324)
         67   -0.7762    2.0000                                                                                                           
               122 C5     2s     ( 0.1484) 183 S7     3s     ( 0.1758) 216 O8     2s     (-0.1088) 274 NP9    6pz    (-0.6526)
               321 NP9    5f0    ( 0.1026) 366 O10    2s     (-0.5184) 375 O10    2pz    ( 0.1540) 396 O11    2s     (-0.1100)
               470 O14    2s     ( 0.5194) 479 O14    2pz    ( 0.1521)
         68   -0.7735    2.0000                                                                                                           
                 2 C1     2s     ( 0.1889)  32 C2     2s     (-0.1480)  41 C2     2pz    (-0.1460)  62 C3     2s     ( 0.2372)
               122 C5     2s     (-0.3544) 152 C6     2s     ( 0.1141) 161 C6     2pz    ( 0.1016) 183 S7     3s     (-0.4435)
               191 S7     3py    (-0.1173) 216 O8     2s     ( 0.2704) 222 O8     2py    (-0.1048) 274 NP9    6pz    (-0.2720)
               366 O10    2s     (-0.2176) 396 O11    2s     ( 0.2709) 470 O14    2s     ( 0.2249) 527 H17    1s     (-0.1180)
      
         69   -0.7360    2.0000                                                                                                           
                 2 C1     2s     ( 0.4027)  38 C2     2py    ( 0.1793)  62 C3     2s     (-0.3684)  71 C3     2pz    (-0.1200)
                92 C4     2s     ( 0.4052) 128 C5     2py    (-0.1681) 152 C6     2s     (-0.3572) 161 C6     2pz    ( 0.1182)
               499 H15    1s     (-0.1064) 513 H16    1s     ( 0.1518) 541 H18    1s     (-0.1378) 555 H19    1s     ( 0.1593)
      
         70   -0.6891    2.0000                                                                                                           
                 8 C1     2py    ( 0.1653)  32 C2     2s     (-0.3182)  41 C2     2pz    ( 0.1581)  62 C3     2s     ( 0.1028)
                71 C3     2pz    (-0.1373)  92 C4     2s     ( 0.2267)  98 C4     2py    (-0.1415) 122 C5     2s     (-0.2871)
               152 C6     2s     ( 0.2626) 161 C6     2pz    ( 0.1076) 183 S7     3s     ( 0.4352) 216 O8     2s     (-0.2669)
               222 O8     2py    ( 0.1374) 396 O11    2s     (-0.2679) 399 O11    2px    ( 0.1363) 513 H16    1s     ( 0.1273)
               527 H17    1s     (-0.1129) 541 H18    1s     ( 0.1594)
         71   -0.6070    2.0000                                                                                                           
                11 C1     2pz    (-0.2050)  68 C3     2py    ( 0.1780) 101 C4     2pz    ( 0.1579) 131 C5     2pz    ( 0.2488)
               158 C6     2py    (-0.1886) 183 S7     3s     ( 0.2059) 195 S7     3pz    ( 0.1278) 216 O8     2s     (-0.1400)
               396 O11    2s     (-0.1395) 399 O11    2px    ( 0.1098) 499 H15    1s     (-0.1782) 513 H16    1s     (-0.1442)
               527 H17    1s     (-0.2744) 541 H18    1s     (-0.1594) 555 H19    1s     (-0.2120)
         72   -0.5433    2.0000                                                                                                           
                 2 C1     2s     ( 0.1848)  11 C1     2pz    ( 0.1368)  32 C2     2s     (-0.2068)  62 C3     2s     ( 0.2520)
                68 C3     2py    (-0.1161)  92 C4     2s     (-0.2202) 101 C4     2pz    ( 0.1918) 122 C5     2s     ( 0.2182)
               128 C5     2py    ( 0.1049) 152 C6     2s     (-0.2124) 158 C6     2py    (-0.1387) 183 S7     3s     ( 0.1362)
               195 S7     3pz    ( 0.2392) 216 O8     2s     (-0.1335) 219 O8     2px    (-0.1142) 225 O8     2pz    ( 0.1406)
               396 O11    2s     (-0.1257) 399 O11    2px    ( 0.1292) 405 O11    2pz    ( 0.1366) 499 H15    1s     ( 0.1551)
               513 H16    1s     (-0.2386) 527 H17    1s     ( 0.1774) 541 H18    1s     (-0.2100) 555 H19    1s     ( 0.2218)
      
         73   -0.5392    2.0000                                                                                                           
                 5 C1     2px    (-0.1011)   8 C1     2py    (-0.2560)  11 C1     2pz    ( 0.1660)  35 C2     2px    ( 0.1081)
                38 C2     2py    ( 0.2718)  41 C2     2pz    ( 0.1189)  71 C3     2pz    (-0.2824)  98 C4     2py    (-0.2471)
               101 C4     2pz    ( 0.1505) 125 C5     2px    ( 0.1033) 128 C5     2py    ( 0.2568) 131 C5     2pz    ( 0.1262)
               161 C6     2pz    (-0.3148) 191 S7     3py    ( 0.1355) 219 O8     2px    ( 0.1134) 399 O11    2px    (-0.1037)
      
         74   -0.5080    2.0000                                                                                                           
                 8 C1     2py    (-0.1212)  32 C2     2s     ( 0.1693)  41 C2     2pz    (-0.2606)  68 C3     2py    ( 0.1551)
               101 C4     2pz    (-0.1072) 122 C5     2s     (-0.1214) 131 C5     2pz    (-0.2549) 158 C6     2py    ( 0.2021)
               191 S7     3py    (-0.1605) 195 S7     3pz    ( 0.2231) 216 O8     2s     (-0.1252) 219 O8     2px    (-0.1709)
               225 O8     2pz    ( 0.2033) 396 O11    2s     (-0.1056) 399 O11    2px    ( 0.1508) 405 O11    2pz    ( 0.1966)
               499 H15    1s     (-0.1628) 513 H16    1s     ( 0.1433) 527 H17    1s     ( 0.2248) 541 H18    1s     ( 0.2047)
               555 H19    1s     (-0.1446)
         75   -0.4975    2.0000                                                                                                           
                 2 C1     2s     (-0.1066)   8 C1     2py    ( 0.1404)  11 C1     2pz    ( 0.2324)  38 C2     2py    (-0.1155)
                68 C3     2py    ( 0.2456)  98 C4     2py    ( 0.1789) 101 C4     2pz    ( 0.2366) 128 C5     2py    (-0.1507)
               155 C6     2px    ( 0.1006) 158 C6     2py    ( 0.2602) 191 S7     3py    ( 0.1180) 219 O8     2px    ( 0.1167)
               499 H15    1s     (-0.2455) 513 H16    1s     (-0.2785) 541 H18    1s     ( 0.2650) 555 H19    1s     ( 0.2454)
      
         76   -0.4894    2.0000                                                                                                           
               187 S7     3px    ( 0.4148) 191 S7     3py    (-0.1672) 216 O8     2s     (-0.3122) 222 O8     2py    ( 0.4649)
               396 O11    2s     ( 0.3313) 399 O11    2px    (-0.3508) 402 O11    2py    (-0.3283)
         77   -0.4735    2.0000                                                                                                           
                11 C1     2pz    ( 0.1776) 161 C6     2pz    (-0.1637) 183 S7     3s     (-0.1780) 187 S7     3px    (-0.1582)
               191 S7     3py    (-0.3039) 195 S7     3pz    (-0.2248) 219 O8     2px    (-0.3765) 225 O8     2pz    (-0.2137)
               396 O11    2s     (-0.1520) 399 O11    2px    ( 0.2777) 402 O11    2py    (-0.2583) 405 O11    2pz    (-0.2068)
               555 H19    1s     ( 0.1142)
         78   -0.4441    2.0000                                                                                                           
               191 S7     3py    (-0.1078) 266 NP9    6py    (-0.1065) 405 O11    2pz    (-0.1012) 426 O12    2s     (-0.3478)
               429 O12    2px    ( 0.1523) 432 O12    2py    (-0.2704) 435 O12    2pz    ( 0.5486) 455 H13    1s     ( 0.3928)
               476 O14    2py    (-0.1844)
         79   -0.4277    2.0000                                                                                                           
                11 C1     2pz    ( 0.2229)  68 C3     2py    (-0.1609)  71 C3     2pz    ( 0.2451)  98 C4     2py    ( 0.1530)
               101 C4     2pz    (-0.2665) 128 C5     2py    (-0.1359) 131 C5     2pz    ( 0.2876) 161 C6     2pz    (-0.2427)
               195 S7     3pz    ( 0.1481) 225 O8     2pz    ( 0.2467) 402 O11    2py    (-0.1072) 405 O11    2pz    ( 0.2140)
               426 O12    2s     (-0.1086) 435 O12    2pz    ( 0.1693) 455 H13    1s     ( 0.1068) 499 H15    1s     ( 0.1738)
               513 H16    1s     ( 0.1162) 527 H17    1s     (-0.3236) 555 H19    1s     ( 0.1236)
         80   -0.4168    2.0000                                                                                                           
                 5 C1     2px    ( 0.2688)   8 C1     2py    (-0.1086)  35 C2     2px    ( 0.2680)  38 C2     2py    (-0.1066)
                65 C3     2px    ( 0.2396)  95 C4     2px    ( 0.2551) 125 C5     2px    ( 0.2626) 128 C5     2py    (-0.1083)
               155 C6     2px    ( 0.2715) 158 C6     2py    (-0.1068) 225 O8     2pz    (-0.1320) 405 O11    2pz    ( 0.1440)
      
         81   -0.4050    2.0000                                                                                                           
                 8 C1     2py    (-0.2380)  11 C1     2pz    (-0.1236)  35 C2     2px    ( 0.1107)  38 C2     2py    ( 0.2728)
                41 C2     2pz    ( 0.1444)  68 C3     2py    (-0.2429)  71 C3     2pz    (-0.1441)  98 C4     2py    ( 0.2459)
               101 C4     2pz    ( 0.1257) 125 C5     2px    (-0.1055) 128 C5     2py    (-0.2627) 131 C5     2pz    (-0.1404)
               158 C6     2py    ( 0.2238) 161 C6     2pz    ( 0.1494) 372 O10    2py    ( 0.1448) 499 H15    1s     ( 0.2356)
               513 H16    1s     (-0.2602) 541 H18    1s     ( 0.2283) 555 H19    1s     (-0.2439)
         82   -0.3703    2.0000                                                                                                           
               191 S7     3py    (-0.1144) 222 O8     2py    ( 0.1245) 225 O8     2pz    (-0.4064) 293 NP9    6d0    ( 0.1329)
               299 NP9    6d1+   (-0.1691) 369 O10    2px    ( 0.4270) 402 O11    2py    ( 0.1327) 405 O11    2pz    ( 0.2996)
               432 O12    2py    (-0.1388) 473 O14    2px    (-0.3699) 479 O14    2pz    (-0.1984)
         83   -0.3616    2.0000                                                                                                           
                 8 C1     2py    (-0.1007)  38 C2     2py    ( 0.1004)  68 C3     2py    (-0.1052) 183 S7     3s     (-0.1026)
               191 S7     3py    (-0.1818) 222 O8     2py    ( 0.1685) 225 O8     2pz    ( 0.1830) 293 NP9    6d0    ( 0.2275)
               366 O10    2s     (-0.1496) 372 O10    2py    (-0.1367) 375 O10    2pz    ( 0.3621) 402 O11    2py    ( 0.1423)
               405 O11    2pz    (-0.3306) 432 O12    2py    (-0.1862) 435 O12    2pz    (-0.1583) 470 O14    2s     (-0.1388)
               473 O14    2px    ( 0.1748) 476 O14    2py    ( 0.1944) 479 O14    2pz    (-0.4038) 499 H15    1s     ( 0.1173)
      
         84   -0.3564    2.0000                                                                                                           
                41 C2     2pz    ( 0.1544) 195 S7     3pz    (-0.1117) 219 O8     2px    (-0.2055) 222 O8     2py    (-0.1909)
               287 NP9    6d1-   ( 0.1777) 372 O10    2py    (-0.5919) 402 O11    2py    (-0.1578) 405 O11    2pz    ( 0.2155)
               432 O12    2py    (-0.1940) 455 H13    1s     ( 0.1009) 476 O14    2py    ( 0.3379)
         85   -0.3455    2.0000                                                                                                           
               225 O8     2pz    (-0.4793) 299 NP9    6d1+   ( 0.1633) 369 O10    2px    (-0.3986) 372 O10    2py    ( 0.1264)
               405 O11    2pz    ( 0.4097) 473 O14    2px    ( 0.4290) 479 O14    2pz    (-0.1011)
         86   -0.3371    2.0000                                                                                                           
                41 C2     2pz    (-0.1018) 187 S7     3px    (-0.1089) 191 S7     3py    (-0.2245) 219 O8     2px    ( 0.2490)
               222 O8     2py    ( 0.3044) 225 O8     2pz    (-0.1106) 250 NP9    6s     ( 0.2127) 293 NP9    6d0    (-0.1489)
               366 O10    2s     ( 0.1230) 372 O10    2py    (-0.1431) 375 O10    2pz    (-0.4270) 399 O11    2px    ( 0.1325)
               402 O11    2py    ( 0.2258) 405 O11    2pz    (-0.1772) 470 O14    2s     ( 0.1272) 473 O14    2px    ( 0.1469)
               476 O14    2py    ( 0.2786) 479 O14    2pz    ( 0.3805)
         87   -0.3297    2.0000                                                                                                           
               187 S7     3px    (-0.1152) 198 S7     3d2-   ( 0.1312) 216 O8     2s     ( 0.1542) 219 O8     2px    ( 0.5603)
               369 O10    2px    ( 0.1903) 396 O11    2s     (-0.1109) 399 O11    2px    ( 0.3456) 402 O11    2py    (-0.6108)
      
         88   -0.3198    2.0000                                                                                                           
               266 NP9    6py    (-0.1454) 317 NP9    5f1-   ( 0.2053) 325 NP9    5f1+   (-0.1134) 369 O10    2px    (-0.1647)
               372 O10    2py    ( 0.3459) 375 O10    2pz    ( 0.1524) 432 O12    2py    ( 0.2739) 435 O12    2pz    ( 0.2429)
               473 O14    2px    (-0.2730) 476 O14    2py    ( 0.6498)
         89   -0.3126    2.0000                                                                                                           
               219 O8     2px    ( 0.1950) 222 O8     2py    ( 0.1203) 258 NP9    6px    ( 0.2373) 325 NP9    5f1+   (-0.2121)
               369 O10    2px    (-0.5701) 372 O10    2py    (-0.2051) 399 O11    2px    ( 0.1036) 429 O12    2px    ( 0.1424)
               473 O14    2px    (-0.5445) 476 O14    2py    (-0.2063)
         90   -0.2895    2.0000                                                                                                           
               191 S7     3py    (-0.1023) 222 O8     2py    ( 0.1290) 266 NP9    6py    ( 0.2756) 274 NP9    6pz    ( 0.2556)
               321 NP9    5f0    (-0.3757) 372 O10    2py    (-0.3392) 375 O10    2pz    ( 0.3751) 402 O11    2py    ( 0.1992)
               429 O12    2px    (-0.3165) 432 O12    2py    ( 0.4175) 435 O12    2pz    ( 0.2067) 476 O14    2py    (-0.1603)
               479 O14    2pz    ( 0.2298)
         91   -0.2871    2.0000                                                                                                           
               258 NP9    6px    (-0.1324) 369 O10    2px    ( 0.1061) 429 O12    2px    ( 0.8072) 432 O12    2py    ( 0.3987)
      
         92   -0.2724    2.0000                                                                                                           
               195 S7     3pz    (-0.1297) 266 NP9    6py    (-0.1604) 274 NP9    6pz    ( 0.3486) 321 NP9    5f0    (-0.4508)
               372 O10    2py    ( 0.2623) 375 O10    2pz    ( 0.2919) 405 O11    2pz    ( 0.1148) 429 O12    2px    ( 0.1596)
               432 O12    2py    (-0.4258) 435 O12    2pz    (-0.3312) 479 O14    2pz    ( 0.4411)
         93   -0.2482    2.0000                                                                                                           
                 5 C1     2px    ( 0.4443)   8 C1     2py    (-0.1779)  35 C2     2px    ( 0.2747)  38 C2     2py    (-0.1081)
                65 C3     2px    (-0.1584)  95 C4     2px    (-0.4418)  98 C4     2py    ( 0.1759) 125 C5     2px    (-0.2849)
               128 C5     2py    ( 0.1143) 155 C6     2px    ( 0.1614)
         94   -0.2407    2.0000                                                                                                           
                35 C2     2px    (-0.3632)  38 C2     2py    ( 0.1451)  65 C3     2px    (-0.4141)  68 C3     2py    ( 0.1656)
                95 C4     2px    (-0.1213) 125 C5     2px    ( 0.3249) 128 C5     2py    (-0.1291) 155 C6     2px    ( 0.4181)
               158 C6     2py    (-0.1666) 225 O8     2pz    (-0.1541) 405 O11    2pz    ( 0.1505)
         95   -0.2360    2.0000                                                                                                           
                32 C2     2s     (-0.1285)  41 C2     2pz    (-0.2744) 183 S7     3s     ( 0.3168) 187 S7     3px    ( 0.1334)
               191 S7     3py    ( 0.3420) 195 S7     3pz    ( 0.5004) 200 S7     3d1-   ( 0.1232) 222 O8     2py    (-0.1811)
               225 O8     2pz    (-0.4551) 274 NP9    6pz    ( 0.1527) 321 NP9    5f0    (-0.1526) 375 O10    2pz    ( 0.1538)
               402 O11    2py    (-0.1998) 405 O11    2pz    (-0.4689) 479 O14    2pz    ( 0.1134)
         96    0.0000    0.5000                                                                                                           
               309 NP9    5f3-   (-0.1219) 313 NP9    5f2-   (-0.4376) 329 NP9    5f2+   ( 0.7450) 333 NP9    5f3+   ( 0.4629)
      
         97    0.0000    0.5000                                                                                                           
               309 NP9    5f3-   (-0.6093) 313 NP9    5f2-   ( 0.6894) 333 NP9    5f3+   ( 0.3629)
         98    0.0000    0.5000                                                                                                           
               309 NP9    5f3-   ( 0.6056) 313 NP9    5f2-   ( 0.1760) 329 NP9    5f2+   (-0.2501) 333 NP9    5f3+   ( 0.7280)
      
         99    0.0000    0.5000                                                                                                           
               309 NP9    5f3-   ( 0.4721) 313 NP9    5f2-   ( 0.5397) 329 NP9    5f2+   ( 0.6039) 333 NP9    5f3+   (-0.3207)
      
        100    0.1268    0.0000                                                                                                           
                 2 C1     2s     ( 0.3646)   3 C1     3s     ( 0.1922)  11 C1     2pz    ( 0.1281)  92 C4     2s     ( 0.5498)
                93 C4     3s     ( 0.2916)  98 C4     2py    (-0.1282) 101 C4     2pz    (-0.1694) 121 C5     1s     ( 0.2302)
               122 C5     2s     ( 1.4084) 123 C5     3s     ( 0.7563) 124 C5     4s     ( 0.1126) 128 C5     2py    ( 0.2414)
               129 C5     3py    ( 0.1431) 131 C5     2pz    (-0.6101) 132 C5     3pz    (-0.3604) 138 C5     3d0    ( 0.1018)
               151 C6     1s     ( 0.2376) 152 C6     2s     ( 1.4487) 153 C6     3s     ( 0.7766) 154 C6     4s     ( 0.1149)
               155 C6     2px    ( 0.2432) 156 C6     3px    ( 0.1447) 158 C6     2py    ( 0.6128) 159 C6     3py    ( 0.3637)
               499 H15    1s     ( 0.1018) 500 H15    2s     ( 0.1967) 513 H16    1s     (-0.5056) 514 H16    2s     (-0.3268)
               520 H16    2pz    (-0.1371) 527 H17    1s     (-1.5581) 528 H17    2s     (-1.1625) 532 H17    2py    ( 0.1717)
               533 H17    3py    ( 0.1065) 534 H17    2pz    (-0.3580) 535 H17    3pz    (-0.2176) 541 H18    1s     (-1.5963)
               542 H18    2s     (-1.2082) 544 H18    2px    ( 0.1489) 546 H18    2py    ( 0.3739) 547 H18    3py    ( 0.2282)
               555 H19    1s     (-0.3028) 556 H19    2s     (-0.1502)
        101    0.1421    0.0000                                                                                                           
                 1 C1     1s     ( 0.1379)   2 C1     2s     ( 0.8336)   3 C1     3s     ( 0.4531)   8 C1     2py    ( 0.1743)
                 9 C1     3py    ( 0.1060)  11 C1     2pz    ( 0.4296)  12 C1     3pz    ( 0.2444)  32 C2     2s     (-0.2667)
                33 C2     3s     (-0.1337)  62 C3     2s     ( 0.2104)  63 C3     3s     ( 0.1104)  91 C4     1s     (-0.1657)
                92 C4     2s     (-0.9985)  93 C4     3s     (-0.5398)  95 C4     2px    ( 0.1508)  98 C4     2py    ( 0.3705)
                99 C4     3py    ( 0.2147) 101 C4     2pz    ( 0.3461) 102 C4     3pz    ( 0.2090) 121 C5     1s     (-0.2516)
               122 C5     2s     (-1.4923) 123 C5     3s     (-0.7947) 124 C5     4s     (-0.1090) 128 C5     2py    (-0.2482)
               129 C5     3py    (-0.1512) 131 C5     2pz    ( 0.5031) 132 C5     3pz    ( 0.3145) 151 C6     1s     ( 0.2657)
               152 C6     2s     ( 1.5808) 153 C6     3s     ( 0.8443) 154 C6     4s     ( 0.1166) 155 C6     2px    ( 0.2276)
               156 C6     3px    ( 0.1411) 158 C6     2py    ( 0.5733) 159 C6     3py    ( 0.3551) 191 S7     3py    ( 0.1557)
               192 S7     4py    ( 0.1503) 251 NP9    7s     ( 0.2434) 267 NP9    7py    ( 0.1909) 499 H15    1s     (-0.1184)
               500 H15    2s     (-0.2640) 513 H16    1s     ( 1.1573) 514 H16    2s     ( 0.8511) 518 H16    2py    ( 0.1434)
               520 H16    2pz    ( 0.2669) 521 H16    3pz    ( 0.1654) 527 H17    1s     ( 1.7242) 528 H17    2s     ( 1.5286)
               529 H17    3s     ( 0.1459) 534 H17    2pz    ( 0.3769) 535 H17    3pz    ( 0.2382) 541 H18    1s     (-1.8547)
               542 H18    2s     (-1.6375) 543 H18    3s     (-0.1525) 544 H18    2px    ( 0.1568) 546 H18    2py    ( 0.3919)
               547 H18    3py    ( 0.2453) 555 H19    1s     (-0.9731) 556 H19    2s     (-0.6883) 560 H19    2py    ( 0.1770)
               561 H19    3py    ( 0.1119) 562 H19    2pz    ( 0.1925) 563 H19    3pz    ( 0.1125)
--
 
      Von Neumann Entropy (Root  1) =  1.98160
 

      Mulliken population analysis for root number:  1
      -----------------------------------------------
 
 
++    Molecular charges:
      ------------------
 
      Mulliken charges per centre and basis function type
      ---------------------------------------------------
 
                C1      C2      C3      C4      C5      C6      S7      O8      NP9     O10     O11     O12   
      1s       2.0036  2.0031  2.0049  2.0035  2.0032  2.0032  2.0000  1.9990  2.0000  1.9995  1.9989  1.9998
      2s       1.5292  1.1930  1.5792  1.5765  1.5104  1.5305  1.9984  1.8655  2.0000  1.9001  1.8725  1.8268
      2px      0.9140  0.9339  0.8753  0.9279  0.9156  0.9519  2.0013  1.6261  2.0000  1.6700  1.2683  1.8013
      2pz      0.8762  0.8930  0.7719  0.8871  0.8877  0.7813  2.0004  1.8342  2.0000  1.4356  1.8288  1.4834
      2py      0.8471  0.8361  0.9205  0.8404  0.8297  0.9135  2.0006  1.3613  2.0000  1.7107  1.7260  1.7225
      3s      -0.0164 -0.0303 -0.0147 -0.0182 -0.0322 -0.0242  1.5653  0.0029  2.0000  0.0078  0.0040 -0.0149
      3px     -0.0007 -0.0064 -0.0020 -0.0009 -0.0025  0.0006  0.7201 -0.0025  2.0000  0.0074  0.0002  0.0201
      3pz     -0.0394 -0.0219 -0.0466 -0.0424 -0.0414 -0.0671  1.1726 -0.0183  2.0000 -0.0150 -0.0178 -0.0069
      3py     -0.0334 -0.0465 -0.0293 -0.0463 -0.0512 -0.0312  1.0141 -0.0032  2.0000 -0.0041 -0.0073  0.0019
      4s       0.0014  0.0061  0.0021  0.0013  0.0005  0.0011  0.0081  0.0059  2.0000  0.0044  0.0063 -0.0003
      3d2+     0.0136  0.0145  0.0134  0.0110  0.0139  0.0122  0.1814  0.0077  2.0000  0.0004  0.0103  0.0016
      3d1+     0.0153  0.0149  0.0199  0.0153  0.0114  0.0208  0.1327  0.0040  2.0000  0.0092  0.0082  0.0021
      3d0      0.0067  0.0189  0.0185  0.0087  0.0151  0.0200  0.1111  0.0032  2.0000  0.0091  0.0032  0.0083
      3d1-     0.0260  0.0254  0.0061  0.0258  0.0171  0.0059  0.1476  0.0049  2.0000  0.0088  0.0008  0.0033
      3d2-     0.0143  0.0154  0.0131  0.0118  0.0146  0.0116  0.1889  0.0106  2.0000  0.0004  0.0084  0.0015
      4px     -0.0012 -0.0011 -0.0012 -0.0011 -0.0011 -0.0010  0.0276  0.0013  2.0000  0.0005  0.0012  0.0000
      4pz     -0.0014  0.0005 -0.0020 -0.0013 -0.0008 -0.0026 -0.0058 -0.0004  2.0000  0.0007 -0.0008 -0.0007
      4py     -0.0018 -0.0011 -0.0012 -0.0016 -0.0021 -0.0007  0.0013  0.0019  2.0000 -0.0020 -0.0001  0.0006
      5s       0.0000  0.0000  0.0000  0.0000  0.0000  0.0000  0.0058  0.0000  2.0010  0.0000  0.0000  0.0000
      4d2+    -0.0010 -0.0019  0.0000 -0.0026 -0.0023 -0.0004  0.0010  0.0013  2.0000  0.0000  0.0018  0.0002
      4d1+    -0.0006  0.0007 -0.0005 -0.0001 -0.0011 -0.0005  0.0013  0.0008  2.0000  0.0016  0.0013  0.0001
      4d0     -0.0076 -0.0047 -0.0051 -0.0072 -0.0053 -0.0070  0.0007  0.0002  2.0000 -0.0014  0.0002  0.0005
      4d1-    -0.0048 -0.0026 -0.0092 -0.0046 -0.0066 -0.0092  0.0036  0.0007  2.0000  0.0015  0.0001 -0.0002
      4d2-    -0.0009 -0.0017  0.0001 -0.0022 -0.0021 -0.0004  0.0015  0.0017  2.0000  0.0000  0.0011  0.0004
      5px      0.0000  0.0000  0.0000  0.0000  0.0000  0.0000 -0.0024  0.0000  1.9999  0.0000  0.0000  0.0000
      5pz      0.0000  0.0000  0.0000  0.0000  0.0000  0.0000 -0.0004  0.0000  1.9995  0.0000  0.0000  0.0000
      5py      0.0000  0.0000  0.0000  0.0000  0.0000  0.0000 -0.0016  0.0000  1.9999  0.0000  0.0000  0.0000
      6s       0.0000  0.0000  0.0000  0.0000  0.0000  0.0000  0.0000  0.0000  1.9806  0.0000  0.0000  0.0000
      4f3+     0.0006  0.0006  0.0010  0.0004  0.0005  0.0011  0.0253  0.0006  2.0000  0.0000  0.0009  0.0002
      4f2+     0.0024  0.0027  0.0022  0.0022  0.0024  0.0021  0.0121  0.0001  2.0000  0.0001  0.0005  0.0002
      4f1+     0.0025  0.0023  0.0032  0.0025  0.0016  0.0033  0.0089  0.0002  2.0000  0.0010  0.0005  0.0002
      4f0      0.0035  0.0049  0.0048  0.0036  0.0040  0.0045  0.0233  0.0006  2.0000  0.0012  0.0006  0.0003
      4f1-     0.0030  0.0027  0.0027  0.0031  0.0027  0.0025  0.0081  0.0004  2.0000  0.0010  0.0002  0.0005
      4f2-     0.0023  0.0026  0.0023  0.0022  0.0023  0.0021  0.0149  0.0006  2.0000  0.0001  0.0002  0.0002
      4f3-     0.0030  0.0031  0.0009  0.0027  0.0030  0.0009  0.0336  0.0011  2.0000  0.0000  0.0008  0.0002
      5d2+     0.0000  0.0000  0.0000  0.0000  0.0000  0.0000  0.0000  0.0000  1.9998  0.0000  0.0000  0.0000
      5d1+     0.0000  0.0000  0.0000  0.0000  0.0000  0.0000  0.0000  0.0000  1.9993  0.0000  0.0000  0.0000
      5d0      0.0000  0.0000  0.0000  0.0000  0.0000  0.0000  0.0000  0.0000  1.9973  0.0000  0.0000  0.0000
      5d1-     0.0000  0.0000  0.0000  0.0000  0.0000  0.0000  0.0000  0.0000  1.9993  0.0000  0.0000  0.0000
      5d2-     0.0000  0.0000  0.0000  0.0000  0.0000  0.0000  0.0000  0.0000  1.9998  0.0000  0.0000  0.0000
      6px      0.0000  0.0000  0.0000  0.0000  0.0000  0.0000  0.0000  0.0000  1.9786  0.0000  0.0000  0.0000
      6pz      0.0000  0.0000  0.0000  0.0000  0.0000  0.0000  0.0000  0.0000  1.8156  0.0000  0.0000  0.0000
      6py      0.0000  0.0000  0.0000  0.0000  0.0000  0.0000  0.0000  0.0000  1.9690  0.0000  0.0000  0.0000
      7s       0.0000  0.0000  0.0000  0.0000  0.0000  0.0000  0.0000  0.0000  0.0743  0.0000  0.0000  0.0000
      5f3+     0.0000  0.0000  0.0000  0.0000  0.0000  0.0000  0.0000  0.0000  0.4892  0.0000  0.0000  0.0000
      5f2+     0.0000  0.0000  0.0000  0.0000  0.0000  0.0000  0.0000  0.0000  0.5726  0.0000  0.0000  0.0000
      5f1+     0.0000  0.0000  0.0000  0.0000  0.0000  0.0000  0.0000  0.0000  0.2334  0.0000  0.0000  0.0000
      5f0      0.0000  0.0000  0.0000  0.0000  0.0000  0.0000  0.0000  0.0000  0.9608  0.0000  0.0000  0.0000
      5f1-     0.0000  0.0000  0.0000  0.0000  0.0000  0.0000  0.0000  0.0000  0.2184  0.0000  0.0000  0.0000
      5f2-     0.0000  0.0000  0.0000  0.0000  0.0000  0.0000  0.0000  0.0000  0.4293  0.0000  0.0000  0.0000
[...]
        20   21       2.83811623E-05  2.00416643E+01  3.12298100E+01  5.42138004E+01  1.05485275E+02
        20   23       1.77403799E-05  3.70293587E+01  1.67216686E+00  1.45145463E+02  1.83846989E+02
        20   24       9.88604026E-05  3.21743548E+01  3.06910739E+01  1.18056292E+03  1.24342835E+03
        20   25       3.27440506E-04  1.35178697E+03  4.46956699E+03  1.27564988E+00  5.82262961E+03
        20   26       3.74948031E-05  7.21721169E+01  4.72764787E+02  1.32044269E+02  6.76981173E+02
        21   22       1.10082710E-03  1.81096627E+00  1.50382514E+02  6.52646943E+02  8.04840423E+02
        21   23       2.43693266E-04  2.58275350E+00  1.70982072E+01  3.86671629E+02  4.06352590E+02
        21   24       3.07831324E-04  2.56784195E+02  4.27724980E+02  1.21977618E+02  8.06486794E+02
        21   25       3.35180705E-04  9.03029270E+02  7.42763833E+02  1.10419427E+02  1.75621253E+03
        21   26       2.86515107E-03  7.27252409E+03  7.75806841E+03  4.07726232E+02  1.54383187E+04
        21   27       1.94625889E-04  7.42134399E+02  5.57860348E+02  4.88611501E+02  1.78860625E+03
        22   23       9.20781225E-03  1.42747542E+03  3.20093443E+02  4.80893949E+00  1.75237780E+03
        22   24       3.08873956E-03  5.61856529E+02  5.75693221E+02  6.63223747E+02  1.80077350E+03
        22   25       7.11769208E-05  1.22518558E+00  9.25010223E-01  1.44206633E+02  1.46356829E+02
        22   26       4.79150177E-04  4.86175009E+00  2.49754291E+00  1.02271205E+03  1.03007135E+03
        22   27       1.82271189E-05  1.59065162E+01  4.96587448E-01  6.99366895E+01  8.63397932E+01
        23   24       2.18706868E-03  9.97464587E-01  6.81822824E+00  2.26477951E+02  2.34293644E+02
        23   25       6.18627095E-05  1.46135012E+01  3.58459873E-01  4.66076594E+01  6.15796204E+01
        23   26       1.22606676E-03  2.94092350E+02  1.24175579E+01  9.94136839E+02  1.30064675E+03
        23   27       4.97604727E-05  1.07228401E+02  3.08513664E+01  1.26077250E+01  1.50687492E+02
        24   25       2.14693037E-03  4.06442652E+02  4.76890672E+02  8.15950983E+01  9.64928423E+02
        24   26       1.69066392E-02  3.69410380E+03  4.48018030E+03  1.73122139E+02  8.34740624E+03
        24   27       6.69796772E-04  5.26126855E+02  6.59740240E+02  1.51213456E+02  1.33708055E+03
        25   26       6.82334277E-04  7.71891994E-02  5.44787551E-01  8.79590383E-02  7.09935788E-01
        25   27       8.14894955E-04  1.00516770E+02  3.46195587E+02  2.51940539E+00  4.49231762E+02
        26   27       2.38747576E-04  1.80159388E+01  6.99952173E+01  3.24172377E+01  1.20428394E+02
        26   28       2.28839799E-05  1.40901568E+03  1.61648734E+03  1.33763049E+01  3.03887932E+03
         -----------------------------------------------------------------------
 --------------------
--
 
 
 --------------------------------------------------
 
 A comparison between the dipole oscillator strengths in 
 length and velocity gauge will be performed
 
 All dipole oscillator differences above the tolerance of 
  0.100000000000000       will be printed 
 
 Due to basis set deficiency these oscillator may be problematic 
 
 The tolerance is defined as ABS(1-O_l/O_v) 
 O_l : dipole oscillator strength in length gauge
 O_p : dipole oscillator strength in velocity gauge
 
 --------------------------------------------------
 
  Problematic transitions have been found
      From   To      Difference (%)  Osc. st. (len.) Osc. st. (vel.)
      --------------------------------------------------------------
 
         1    2      --------------- below threshold  4.37121146E-02
         1    4      --------------- below threshold  1.11091071E-05
         1    5      --------------- below threshold  1.08991772E-05
         1   16      --------------- below threshold  8.21346946E-06
         1   18      --------------- below threshold  3.27611267E-05
         2   14      --------------- below threshold  2.58332450E-06
         2   15       2.47385529E+01  1.64053631E-05  1.31517985E-05
         2   17      --------------- below threshold  2.59488106E-05
         3    4      --------------- below threshold  1.17564633E-03
         3    5      --------------- below threshold  4.51521985E-04
         3    7      --------------- below threshold  5.64182077E-05
         3    9      --------------- below threshold  5.45965261E-05
         3   10      --------------- below threshold  8.96701415E-05
         3   11      --------------- below threshold  1.65002173E-04
         3   13      --------------- below threshold  4.51755174E-05
         3   15      --------------- below threshold  6.55103257E-06
         3   16      --------------- below threshold  2.85804264E-05
         3   17      --------------- below threshold  8.09081291E-08
         3   19      --------------- below threshold  1.02010798E-05
         3   20      --------------- below threshold  1.05492893E-05
         3   21      --------------- below threshold  7.77904967E-07
         3   24      --------------- below threshold  2.51342581E-07
         3   28      --------------- below threshold  1.08254947E-08
         4    5      --------------- below threshold  1.53701389E-03
         4    6      --------------- below threshold  2.20345406E-04
         4    7      --------------- below threshold  2.88173246E-04
         4    8      --------------- below threshold  5.26812748E-05
         4    9      --------------- below threshold  2.18447221E-05
         4   11      --------------- below threshold  6.59240080E-04
         4   14      --------------- below threshold  2.65952570E-05
         4   15      --------------- below threshold  1.98719839E-05
         4   16      --------------- below threshold  6.63461273E-05
         4   19      --------------- below threshold  6.01042754E-07
         4   20      --------------- below threshold  1.30189089E-05
         4   21      --------------- below threshold  1.85173378E-06
         4   25      --------------- below threshold  8.71259311E-08
         5    6      --------------- below threshold  8.89162458E-04
         5    7      --------------- below threshold  3.41758859E-04
         5    9      --------------- below threshold  6.54127886E-05
         5   10      --------------- below threshold  5.07908062E-04
         5   11      --------------- below threshold  1.28280320E-05
         5   13      --------------- below threshold  5.28700353E-05
         5   15      --------------- below threshold  3.65374295E-05
         5   17      --------------- below threshold  1.91647672E-05
         5   19      --------------- below threshold  1.44969779E-05
         5   20      --------------- below threshold  8.50564800E-08
         5   27      --------------- below threshold  5.20755752E-08
         6    7      --------------- below threshold  6.75020639E-03
         6    8      --------------- below threshold  1.52231066E-05
         6    9      --------------- below threshold  6.98114606E-05
         6   11      --------------- below threshold  1.66977351E-05
         6   13      --------------- below threshold  4.91484315E-05
         6   14      --------------- below threshold  2.47042898E-05
         6   16      --------------- below threshold  4.70027259E-05
         6   25      --------------- below threshold  2.23859178E-07
         6   27      --------------- below threshold  1.51997119E-06
         7    8      --------------- below threshold  9.92047132E-05
         7    9      --------------- below threshold  5.77576511E-05
         7   10      --------------- below threshold  2.74046075E-05
         7   13      --------------- below threshold  2.56847438E-05
         7   14      --------------- below threshold  1.31818618E-05
         7   15      --------------- below threshold  1.46825127E-04
         7   27      --------------- below threshold  2.54932281E-07
         8    9      --------------- below threshold  4.96217190E-04
         8   10      --------------- below threshold  4.32336646E-04
         8   11      --------------- below threshold  1.48498603E-04
         8   12      --------------- below threshold  4.45804375E-04
         8   13      --------------- below threshold  5.56477680E-04
         8   14      --------------- below threshold  1.37336045E-04
         8   15      --------------- below threshold  1.58363771E-05
         8   16      --------------- below threshold  2.54884191E-04
         8   18      --------------- below threshold  3.37065914E-05
         8   19      --------------- below threshold  1.77742715E-05
         8   20      --------------- below threshold  2.76927821E-05
         8   21      --------------- below threshold  1.91993319E-05
         8   22       1.03999905E+01  1.26558254E-05  1.14636110E-05
         8   23      --------------- below threshold  1.43972763E-06
         8   24      --------------- below threshold  1.98909170E-06
         8   25      --------------- below threshold  1.31718901E-05
         8   26      --------------- below threshold  8.88315688E-05
         8   27      --------------- below threshold  1.21536458E-05
         8   28      --------------- below threshold  9.30894586E-09
         9   10      --------------- below threshold  6.46800033E-05
         9   11      --------------- below threshold  2.83814659E-04
         9   12      --------------- below threshold  9.98114507E-04
         9   13      --------------- below threshold  7.41412615E-04
         9   14      --------------- below threshold  6.74391494E-05
         9   15      --------------- below threshold  3.66556770E-04
         9   16      --------------- below threshold  2.33414969E-05
         9   18      --------------- below threshold  4.97496686E-05
         9   21      --------------- below threshold  6.36544276E-05
        10   11      --------------- below threshold  5.01455795E-03
        10   12      --------------- below threshold  3.43291396E-05
        10   13      --------------- below threshold  1.48229122E-04
        10   14      --------------- below threshold  1.51485837E-04
        10   15      --------------- below threshold  1.90140240E-05
        10   16      --------------- below threshold  1.60531091E-04
        10   20      --------------- below threshold  1.17268908E-05
        10   21       4.82192317E+01  1.61378659E-05  3.11657521E-05
        10   22      --------------- below threshold  3.89509574E-07
        10   25      --------------- below threshold  1.16993850E-07
        10   27      --------------- below threshold  2.18323744E-05
        10   28      --------------- below threshold  4.52410209E-07
        11   12      --------------- below threshold  6.96734698E-04
        11   13      --------------- below threshold  8.29292649E-05
        11   15      --------------- below threshold  1.09166474E-04
        11   17      --------------- below threshold  6.69870650E-05
        11   20      --------------- below threshold  1.37166948E-06
        11   21       7.30144337E+01  1.56461313E-05  5.79796293E-05
        11   28      --------------- below threshold  5.88120506E-07
        12   13      --------------- below threshold  2.82393329E-04
        12   14      --------------- below threshold  3.45416056E-05
        12   15      --------------- below threshold  1.44320554E-04
        12   16      --------------- below threshold  6.14636019E-05
        12   17      --------------- below threshold  3.42349212E-05
        12   18      --------------- below threshold  6.89569736E-05
        12   19      --------------- below threshold  5.24145514E-05
        12   20      --------------- below threshold  1.12667115E-04
        12   21      --------------- below threshold  1.67169191E-05
        12   22      --------------- below threshold  3.89551432E-05
        12   23      --------------- below threshold  8.36032889E-06
        12   24      --------------- below threshold  8.43602501E-05
        12   26       3.72005557E+01  1.49052389E-05  1.08638328E-05
        12   28      --------------- below threshold  1.98315590E-06
        13   14      --------------- below threshold  2.30520815E-04
        13   15      --------------- below threshold  6.52840613E-04
        13   16      --------------- below threshold  1.24020919E-03
        13   17      --------------- below threshold  1.76578675E-05
        13   18      --------------- below threshold  2.08642683E-05
        13   19      --------------- below threshold  1.51096436E-05
        13   21      --------------- below threshold  1.27753391E-05
        13   24      --------------- below threshold  5.24546498E-05
        13   25       5.12254988E+01  1.15513610E-05  2.36831965E-05
        13   26      --------------- below threshold  7.58634797E-05
        13   27       2.04361244E+01  1.42881308E-05  1.79580629E-05
        13   28      --------------- below threshold  6.76623424E-06
        14   15      --------------- below threshold  4.63668845E-03
        14   16      --------------- below threshold  4.11816781E-03
        14   17      --------------- below threshold  3.19620071E-04
        14   18      --------------- below threshold  6.49957425E-04
        14   19      --------------- below threshold  1.16077817E-05
        14   20      --------------- below threshold  2.45128702E-05
        14   21      --------------- below threshold  3.55424889E-05
        14   22      --------------- below threshold  1.59531901E-05
        14   23       3.53529028E+01  1.12768653E-05  1.74437303E-05
        14   25       4.48485594E+01  1.69043217E-05  3.06507347E-05
        14   26      --------------- below threshold  5.94673790E-05
        14   27      --------------- below threshold  1.04058394E-05
        15   16      --------------- below threshold  9.96275756E-03
        15   17      --------------- below threshold  3.94586684E-04
        15   18      --------------- below threshold  1.34173057E-04
        15   19      --------------- below threshold  6.14558303E-05
        15   22      --------------- below threshold  1.38698683E-05
        15   23      --------------- below threshold  1.21780775E-05
        15   25      --------------- below threshold  3.36651332E-05
        15   26      --------------- below threshold  1.00716349E-04
        15   27       7.31705199E+01  1.99022326E-05  7.41804633E-05
        15   28      --------------- below threshold  2.31639077E-07
        16   17      --------------- below threshold  5.15456354E-03
        16   18      --------------- below threshold  1.21759726E-04
        16   19      --------------- below threshold  4.45569901E-05
        16   22      --------------- below threshold  1.86203628E-05
        16   24      --------------- below threshold  1.00021348E-05
        16   25       5.77236531E+01  1.61788987E-05  3.82693867E-05
        16   26      --------------- below threshold  1.64049439E-05
        17   18      --------------- below threshold  2.36461083E-03
        17   19      --------------- below threshold  1.39804792E-04
        17   20      --------------- below threshold  1.11202300E-04
        17   21       1.11199134E+01  3.05577228E-05  2.74997719E-05
        17   22       7.60360137E+01  1.14482894E-05  4.77728924E-05
        17   24       3.52765915E+01  1.55987190E-05  2.41005833E-05
        17   25      --------------- below threshold  1.82113058E-05
        17   26      --------------- below threshold  4.79286005E-05
        17   28      --------------- below threshold  2.86932497E-07
        18   19      --------------- below threshold  1.17174443E-05
        18   21      --------------- below threshold  1.27099453E-04
        18   22       8.29902440E+01  1.37537472E-05  8.08579928E-05
        18   23       9.45632715E+01  1.45474560E-05  2.67577384E-04
        18   24      --------------- below threshold  4.62754748E-05
        18   25      --------------- below threshold  1.69430668E-05
        18   26      --------------- below threshold  1.12036032E-04
        18   27      --------------- below threshold  2.00602785E-05
        19   20      --------------- below threshold  7.41771234E-03
        19   21      --------------- below threshold  1.93915275E-05
        19   24      --------------- below threshold  9.93477961E-05
        19   26      --------------- below threshold  1.77500809E-05
        19   27      --------------- below threshold  5.21397764E-04
        19   28      --------------- below threshold  5.33499774E-06
        20   21      --------------- below threshold  2.83811623E-05
        20   23      --------------- below threshold  1.77403799E-05
        20   24      --------------- below threshold  9.88604026E-05
        20   25      --------------- below threshold  3.27440506E-04
        20   26      --------------- below threshold  3.74948031E-05
        20   28      --------------- below threshold  8.46623924E-06
        21   22      --------------- below threshold  1.10082710E-03
        21   23      --------------- below threshold  2.43693266E-04
        21   24      --------------- below threshold  3.07831324E-04
        21   25      --------------- below threshold  3.35180705E-04
        21   26      --------------- below threshold  2.86515107E-03
        21   27      --------------- below threshold  1.94625889E-04
        22   23      --------------- below threshold  9.20781225E-03
        22   24      --------------- below threshold  3.08873956E-03
        22   25      --------------- below threshold  7.11769208E-05
        22   26      --------------- below threshold  4.79150177E-04
        22   27      --------------- below threshold  1.82271189E-05
        23   24      --------------- below threshold  2.18706868E-03
        23   25      --------------- below threshold  6.18627095E-05
        23   26      --------------- below threshold  1.22606676E-03
        23   27      --------------- below threshold  4.97604727E-05
        24   25      --------------- below threshold  2.14693037E-03
        24   26      --------------- below threshold  1.69066392E-02
        24   27      --------------- below threshold  6.69796772E-04
        24   28      --------------- below threshold  3.14516968E-07
        25   26      --------------- below threshold  6.82334277E-04
        25   27      --------------- below threshold  8.14894955E-04
        25   28      --------------- below threshold  3.65652151E-06
        26   27      --------------- below threshold  2.38747576E-04
        26   28       2.55504279E+01  2.87309347E-05  2.28839799E-05
        27   28      --------------- below threshold  4.18827135E-06
      --------------------------------------------------------------
 
 Number of problematic transitions =                    219
 
 ###############################################################################
 ###############################################################################
 ###                                                                         ###
 ###                                                                         ###
 ###    RunFile label nBas                                                   ###
 ###    was used     4936 times                                              ###
 ###                                                                         ###
 ###                                                                         ###
 ###############################################################################
 ###############################################################################
--- Stop Module: rassi at Fri Nov 16 22:35:17 2018 /rc=_RC_ALL_IS_WELL_ ---
*** files: NpO2_C6H5SO2_OH-m1-triplet.rassi-SO-casscf-xmscaspt2.VTZP.rassi.h5 xmldump
    saved to directory /home/vallet/John-methylsulfonyl/NpO2_C6H5SO2_OH-m1/optg-freq-pbe0/SO-XMS
--- Module rassi spent 11 seconds ---

    Timing: Wall=24275.93 User=123927.07 System=5278.84
