
   OpenMP run-time library returned nthreads =  4
 operating system is UNIX !

 force (u-0-8.local) : TURBOMOLE V7.3 ( 22142 ) 4 Jul 2018 at 18:12:42
 Copyright (C) 2018 TURBOMOLE GmbH, Karlsruhe


    2019-02-05 10:12:37.069 



                             T U R B O M O L E   

                          a o f o r c e - program

                        using direct algorithms for

                       SCF level calculations of
                         * harmonic force constants
                         * hyperpolarizabilities
                         * IR and RAMAN intensities
                         * VCD intensities

                       DFT level calculations of
                         * harmonic force constants
                         * IR intensities
                                                   
       Stephan Boecker, Peter Deglmann, Filipp Furche and Marco Haeser
                          Quantum Chemistry Group
                          Universitaet  Karlsruhe
                                   Germany

 
 

          OpenMP Shared-Memory Parallelization:  4 CPUs.

            By: Erik P. Almaraz and Filipp Furche
            Copyright 2009-2011 by UCI and TURBOMOLE GmbH.

 
 
     References :
 
       RI-J implementation:
         Peter Deglmann, Klaus May, Filipp Furche, Reinhart Ahlrichs
                 Chem. Phys. Lett. 384:103 (2004)
 
       Efficiency, technical details:
         Peter Deglmann, Filipp Furche, Reinhart Ahlrichs
                 Chem. Phys. Lett. 362:511 (2002)
 
       Search of lowest eigenvalues by iterative diagonalization:
         Peter Deglmann, Filipp Furche
                 J. Chem. Phys. 117:9535 (2002)
 
       Vibrational circular dichroism implementation:
        Kevin Reiter, Michael Kuehn, Florian Weigend
                 J. Chem. Phys. 146:054102 (2017)  
 
 


              +--------------------------------------------------+
              | Atomic coordinate, charge and isotop information |
              +--------------------------------------------------+

                    atomic coordinates            atom    charge  isotop
          0.27258847   -0.34742983   -0.55587492    c      6.000     0
          1.78434875   -1.39863127    1.30404650    c      6.000     0
          1.96276828   -4.00948008    1.46099132    c      6.000     0
          0.65770930   -5.53455498   -0.22438497    c      6.000     0
         -0.84256361   -4.44725472   -2.08022268    c      6.000     0
         -1.04787938   -1.84149561   -2.25187920    c      6.000     0
          0.12868036    2.26279192   -0.82326494    o      8.000     0
         -1.65279627    3.89997291    1.14640019    s     16.000     0
          2.79394235   -0.17993406    2.59638783    h      1.000     0
          3.13720058   -4.85228045    2.90979318    h      1.000     0
          0.81197117   -7.57069064   -0.09511479    h      1.000     0
         -1.86120701   -5.63054311   -3.40354727    h      1.000     0
         -2.20286189   -0.95388216   -3.68820421    h      1.000     0
         -0.86802717    3.42293841    3.77680097    o      8.000     0
 
       center of nuclear mass  :   -0.20294200   -0.10246835    0.38340307
       center of nuclear charge:   -0.17751560   -0.22979452    0.35898715

              +--------------------------------------------------+
              |               basis set information              |
              +--------------------------------------------------+

              we will work with the 1s 3p 5d 7f 9g ... basis set
              ...i.e. with spherical basis functions...

   type   atoms  prim   cont   basis
   ---------------------------------------------------------------------------
    c        6     66     46   aug-cc-pVTZ   [5s4p3d2f|19s6p3d2f]
    o        2     66     46   aug-cc-pVTZ   [5s4p3d2f|19s6p3d2f]
    s        1    122     50   aug-cc-pVTZ   [6s5p3d2f|42s17p3d2f]
    h        5     25     23   aug-cc-pVTZ   [4s3p2d|6s3p2d]
   ---------------------------------------------------------------------------
   total:   14    775    533
   ---------------------------------------------------------------------------

   total number of primitive shells          :  135
   total number of contracted shells         :  173
   total number of cartesian basis functions :  624
   total number of SCF-basis functions       :  533


 symmetry group of the molecule :   c1 

 the group has the following generators :
   c1(z)

    1 symmetry operations found

 there are 1 real representations :   a   

 maximum number of shells which are related by symmetry :  1


 determining totally symmetric integral contributions 
    - equivalent to irreducible tensor elements - 
 which can be formed within each triple of representations :

             representation triple      contributions

              a     a     a               1
       UHF mode switched on !

    mo occupation :
   irrep   mo's   occupied
    a      533       37
 
 number of basis functions   :                    533
 number of occupied orbitals :                     37
 
 ALPHA-Occupation:                    37
 BETA-Occupation :                    36
  MOs are in ASCII format !


 reading orbital data $uhfmo_alpha  from file alpha
 orbital characterization : scfconv=7

 reading orbital data $uhfmo_beta  from file beta
 orbital characterization : scfconv=7
 time elapsed for calculating density matrices :   0.078 sec

 number of non-frozen orbitals          :   533
 number of non-frozen occupied orbitals :    37

 number of non-frozen orbitals          :   533
 number of non-frozen occupied orbitals :    36
 Blocking parameters 
 shells:
    index      start shell   last shell  start bf    last bf    #bf 
       1             1         173             1        624    624
          size of I/O Block in Byte:              130830336
  
           ------------------
           density functional
           ------------------
 PBE0 hybrid functional
 exchange:    3/4 (LDA+PBE) + 1/4 HF
 correlation: LDA (PW) + PBE

 iterations will be done with small grid
  
 spherical integration : Lebedev's spherical grid
 spherical gridsize    :                     4
    i.e. gridpoints    :                   434
 value for diffuse not defined
 radial integration    : Chebyshev 2nd kind (scaling 3)
 radial gridsize       :                     6
 integration cells     :                    14
 partition function    : becke
 partition sharpness   :                     3
  
 
 Derivatives of quadrature weights will be included
 
          Overall gridpoints after grid construction =        145801
 Ordering of quadrature gridpoints disabled.
 
 
 
 
 OCCUPIED-OCCUPIED TENSOR SPACES :

          IRREP   tensor space dimension   number of roots

           a              2665                  36
 
 OCCUPIED-VIRTUAL TENSOR SPACES :

          IRREP   tensor space dimension   number of roots

           a             36244                  36
 
 
 
 
 CONSTRUCTING integral bounds

 setting up bound for integral derivative estimation

 increment for numerical differentiation : 0.00050000
 
 machine precision:   2.220446049250313E-016

 integral neglect threshold       :  0.10E-09
 integral storage threshold THIZE :  0.10E-04
 integral storage threshold THIME :         5

 
 
 
 PREPARING NUMERICAL INTEGRATION
 
 Remaining core memory for DFT =                  7623 MB
 
 Memory needed per atom    =                  9140 KiB
 
     i. e.                    14 atoms per loop

 Calculating ground state density on molecular grid

 Integral of ground state total density: Na =   73.00000770721745    

 Integral of ground state spin density:  Nb =   1.000000228057201    


 
 
 CONSTRUCTING first deriv. of <mu|x,y,z|nu> -> Dip. deriv.
  dipole integral derivatives will be neglected if
  expon. factor <0.801282E-12
      ...terminated. cpu:       0.30       wall:       0.08
 
 
 
 
 CONSTRUCTING first deriv. of  <mu|nu>
                               <mu|h|nu>    -> RHS
              second deriv. of <mu|nu>      -> Hessian
                               <mu|h|nu>    -> Hessian
                               nucl. rep.   -> Hessian
     integrals are neglected if expon. factor <  8.012820512820513E-014
      ...terminated. cpu:       3.10       wall:       2.13
 
 
 
 
 CONSTRUCTING second deriv. of 2e energy    -> Hessian
   treating Coulomb (and exchange) contribution
     integrals will be neglected if total contribution <  8.012820512820512E-010
      ...terminated. cpu:    5196.58       wall:    1298.95
   treating exchange-correlation contribution
      ...terminated. cpu:    1326.53       wall:     331.90
 
 
 
 
 CONSTRUCTING S(i,j)xi
      ...terminated. cpu:       0.13       wall:       0.04
 
 
 
 
 CONSTRUCTING <i|x,y,z|j>*S(i,j)xi          -> Dip. deriv.
      ...terminated. cpu:       0.19       wall:       0.05
 
 
 
 
 CONSTRUCTING epsilon(i)*S(i,j)xi*S(i,j)chi -> Hessian
      ...terminated. cpu:       0.00       wall:       0.00
 
 
 
 
 CONSTRUCTING G(a,i)[S(k,l)xi]              -> RHS
              G(i,j)[S(k,l)xi]*S(i,j)chi    -> Hessian
 
         Maximum core memory set to                   8000 MB
         This corresponds to                  1333 vectors in CAO basis
      ...terminated. cpu:    8878.38       wall:    2219.36
 
 
 
 
 CONSTRUCTING G(mu,nu)[D(kap,lam)]xi
 
          Maximum core memory set to                   8000 MB
          Atoms treated simultaneously :                    14
 max of dfo   113.431232272005     
      ...terminated. cpu:    4900.29       wall:    1225.15
 
 
 
 
 CONSTRUCTING F(a,i)xi                      -> RHS
              F(i,j)xi*S(i,j)chi            -> Hessian
 
        Maximum core memory set to                  8000 MB
        This corresponds to                  2460 vectors in CAO basis
      ...terminated. cpu:       3.98       wall:       1.56
 
 
 
 
 CONSTRUCTING epsilon(i)*S(a,i)xi           -> RHS
      ...terminated. cpu:       1.12       wall:       0.66
 
 
 
 
 SOLVING CPHF equations
 
 Residuum convergence criterium   :  1.000000000000000E-005
 
 Maximum number of Davidson iterations set to                    25
  Switching to small grid
        preparing numerical integration ....
          Overall gridpoints after grid construction =         41894

 Calculating ground state density on molecular grid

 Integral of ground state total density: Na =   72.99998794409473    

 Integral of ground state spin density:  Nb =   1.000005133181960    




                       Nonorthonormal Krylov Space Iteration


 total number of roots to be determined: 36


 maximum core memory set to  8000 MB,
 corresponding to     1333 vectors in CAO basis


 maximum number of simultaneously treated vectors (including degeneracy):       36


 Iteration IRREP Converged      Max. Euclidean
                 roots          residual norm

    1       a        0        1.660407554743827D-01
 
    2       a        0        1.901851900783281D-02
 
    3       a        0        4.160654000289189D-03
 
    4       a        0        6.760945954407264D-04
 
    5       a        7        1.001264034591681D-04
 
    6       a       35        1.444380662029810D-05
 
    7       a       36        9.953098139033751D-06
 

 converged!

  Switching to fine grid
        preparing numerical integration ....
          Overall gridpoints after grid construction =        145801

 Calculating ground state density on molecular grid

 Integral of ground state total density: Na =   73.00000770721809    

 Integral of ground state spin density:  Nb =   1.000000228057204    



 Iteration IRREP Converged      Max. Euclidean
                 roots          residual norm

    8       a        0        1.459401253197043D-04
 

 NOTE: Residual norms are larger than 1.00D-05 due to mgrid option!

      ...terminated. cpu:   53379.31       wall:   13344.07
 
 
 
 
 CONSTRUCTING <a|x,y,z|i>*U(a,i)xi          -> Dip. deriv.
      ...terminated. cpu:       0.27       wall:       0.07
 
 
 
 
 CONSTRUCTING RHS(a,i)xi*U(a,i)chi          -> Hessian
      ...terminated. cpu:       0.07       wall:       0.02
 
 
 
 

            -----------------------
            permanent dipole moment
            -----------------------

                                   x                y                z
    electronic part       :   12.8007404492    16.2337082859   -26.7343248707
     nuclear   part       :  -12.9586387470   -16.7750002037    26.2060622377
     total                :   -0.1578982978    -0.5412919178    -0.5282626329

 with reference to the point :   0.0000000        0.0000000        0.0000000
 (given in atomic units)
    | dipole |       :    1.9638988706  debye

   ***  dipole moment & cartesian dipole gradients written onto
        $dipole, $dipgrad,  file=<dipgrad>  ***

             -----------------------------------
             rotational and vibrational analysis
             -----------------------------------


            ==============================================================
            ATOMIC WEIGHTS (average over the natural occurance of isotops)
            ==============================================================
            ('*' denotes special isotop !)
              1     c                12.01115
              2     c                12.01115
              3     c                12.01115
              4     c                12.01115
              5     c                12.01115
              6     c                12.01115
              7     o                15.99940
              8     s                32.06400
              9     h                 1.00797
             10     h                 1.00797
             11     h                 1.00797
             12     h                 1.00797
             13     h                 1.00797
             14     o                15.99940

          -------------------------------------------------
          CARTESIAN FORCE CONSTANT MATRIX (hartree/bohr**2)
         (translational & rotational space projected out)
          -------------------------------------------------

   ATOM              1 c                           2 c 
                  dx        dy        dz        dx        dy        dz
   1 c     dx  0.3736065
           dy -0.0097120 0.6143969
           dz  0.2594866 0.0185316 0.5026226
   2 c     dx -0.1666712 0.0669893-0.1201371 0.3671473
           dy  0.0177774-0.1405117 0.0206651 0.0191077 0.7185980
           dz -0.1230060 0.0790871-0.2176505 0.2913335 0.0375472 0.4979751
   3 c     dx  0.0124585 0.0210824 0.0113068-0.0901041 0.0365859-0.0324455
           dy  0.0564407-0.0177850 0.0691709-0.0056081-0.3477964-0.0135443
           dz  0.0130580 0.0240958 0.0199930-0.0339744 0.0386780-0.1042381
   4 c     dx -0.0340834-0.0051896-0.0334903 0.0233554-0.0427923 0.0179869
           dy -0.0044862 0.0011430-0.0058343-0.0134761-0.0375089-0.0181035
           dz -0.0346456-0.0064555-0.0487894 0.0193289-0.0545198 0.0300247
   5 c     dx  0.0224231-0.0103267 0.0225188-0.0128505 0.0215838-0.0099199
           dy -0.0478406-0.0398157-0.0592673 0.0215893-0.0448086 0.0255262
           dz  0.0222382-0.0148392 0.0302161-0.0100194 0.0254751-0.0160368
   6 c     dx -0.1486730-0.0801350-0.1052124-0.0152032 0.0076862-0.0303164
           dy -0.0326605-0.1689603-0.0476741-0.0229001 0.0612577-0.0264942
           dz -0.1024610-0.1053536-0.2025273-0.0312087 0.0106776-0.0286987
   7 o     dx -0.0526772-0.0075708-0.0072974 0.0045908 0.0309735-0.0023271
           dy  0.0032238-0.2190808 0.0252487 0.0048236-0.0427967 0.0093300
           dz -0.0047607 0.0330199-0.0719406-0.0017826 0.0282324 0.0038048
   8 s     dx -0.0108307 0.0287450 0.0043979 0.0010528-0.0018735 0.0020089
           dy  0.0215211-0.0432132-0.0180835-0.0008940 0.0023611-0.0029873
           dz  0.0004983-0.0392384 0.0019810 0.0003836 0.0084040-0.0009623
   9 h     dx -0.0039415-0.0138310-0.0114162-0.1164807-0.0841979-0.1019523
           dy  0.0076419 0.0097360 0.0092875-0.0865460-0.1582588-0.1093103
           dz -0.0108603-0.0156627-0.0091529-0.1035007-0.1070463-0.1671883
  10 h     dx  0.0055400-0.0001089-0.0027229 0.0025646-0.0002729-0.0017063
           dy -0.0005322-0.0041699-0.0009883 0.0189086-0.0086968 0.0232802
           dz -0.0027189-0.0002367 0.0042408-0.0012114-0.0010102 0.0023851
  11 h     dx -0.0007738-0.0003514-0.0008412 0.0027984-0.0017757-0.0052404
           dy -0.0002034 0.0008493-0.0002331-0.0021078-0.0000905-0.0028323
           dz -0.0009673-0.0001170-0.0012896-0.0052699-0.0024541 0.0002843
  12 h     dx  0.0053373 0.0010257-0.0029315-0.0006190 0.0006221 0.0005659
           dy  0.0016116-0.0036418 0.0015163 0.0005709-0.0007940 0.0007043
           dz -0.0029073 0.0009356 0.0039891 0.0005231 0.0008433-0.0003470
  13 h     dx -0.0044258 0.0088994-0.0116711 0.0023006-0.0025807-0.0040396
           dy -0.0103830 0.0097484-0.0128580-0.0020252-0.0017374-0.0027530
           dz -0.0119862 0.0126977-0.0096206-0.0038742-0.0033565 0.0003868
  14 o     dx  0.0027111 0.0004836-0.0019900-0.0018815-0.0008437-0.0009417
           dy -0.0023986 0.0013048 0.0005185 0.0015678 0.0007831 0.0005499
           dz -0.0009676 0.0135352-0.0020718-0.0005906-0.0021358 0.0002610

   ATOM              3 c                           4 c 
                  dx        dy        dz        dx        dy        dz
   3 c     dx  0.3719349
           dy -0.0230336 0.6908664
           dz  0.2914408-0.0136242 0.5050845
   4 c     dx -0.1439705-0.0417236-0.1004759 0.3469778
           dy -0.0830831-0.2028557-0.1087095-0.0132902 0.7517815
           dz -0.1017793-0.0571718-0.1951295 0.2637221 0.0022564 0.4691300
   5 c     dx -0.0178070-0.0236504-0.0329570-0.1607101 0.0732205-0.1180078
           dy  0.0069692 0.0645210 0.0100138 0.0320867-0.1657123 0.0374283
           dz -0.0321064-0.0274519-0.0328233-0.1197206 0.0889863-0.2133056
   6 c     dx -0.0073125-0.0161140-0.0038693 0.0133301 0.0220086 0.0073436
           dy -0.0164305-0.0564931-0.0215992 0.0512549-0.0176397 0.0635867
           dz -0.0043039-0.0217232-0.0102044 0.0084532 0.0265117 0.0196086
   7 o     dx  0.0006468-0.0016206-0.0080015 0.0003866 0.0006058 0.0018151
           dy  0.0033838 0.0027474 0.0046265 0.0011103-0.0036566 0.0015060
           dz -0.0065418-0.0016117 0.0000966 0.0018153-0.0001711 0.0011760
   8 s     dx  0.0011406-0.0001441-0.0002207 0.0002304-0.0005347 0.0005649
           dy -0.0015579-0.0004147 0.0005646-0.0003253 0.0007692-0.0008882
           dz -0.0006412 0.0002381-0.0022274-0.0006969 0.0015002-0.0007440
   9 h     dx  0.0050547 0.0028459 0.0021816 0.0049849 0.0010453-0.0029403
           dy -0.0157447-0.0117815-0.0204163 0.0013626-0.0051459 0.0012677
           dz  0.0022338 0.0028712 0.0059079-0.0027885 0.0012512 0.0037917
  10 h     dx -0.1392935 0.0669142-0.1246795-0.0044667 0.0082285-0.0102525
           dy  0.0669789-0.1063632 0.0820921-0.0111589 0.0116320-0.0137341
           dz -0.1246213 0.0822881-0.1922425-0.0109181 0.0104812-0.0094288
  11 h     dx  0.0048892-0.0163152 0.0013772-0.0471066 0.0216087-0.0116724
           dy  0.0031775-0.0135187 0.0034188 0.0215473-0.3387638 0.0175655
           dz  0.0021029-0.0209377 0.0052766-0.0116744 0.0175123-0.0514588
  12 h     dx  0.0024923 0.0024121-0.0054624-0.0042812-0.0120736-0.0107014
           dy  0.0019828 0.0000058 0.0022675 0.0072529 0.0113752 0.0094227
           dz -0.0053935 0.0028611 0.0001997-0.0100961-0.0147999-0.0093535
  13 h     dx -0.0004782-0.0005493 0.0007806 0.0052963 0.0002485-0.0026097
           dy -0.0004259-0.0011023-0.0005345-0.0001583-0.0056534-0.0005912
           dz  0.0006992-0.0007646-0.0002215-0.0025569-0.0002693 0.0040352
  14 o     dx  0.0003487 0.0001459 0.0008024 0.0000570-0.0000221-0.0001656
           dy  0.0001152-0.0000299-0.0008734 0.0000233 0.0002356 0.0003274
           dz  0.0000495-0.0005999 0.0005285 0.0004401-0.0006116 0.0004433

   ATOM              5 c                           6 c 
                  dx        dy        dz        dx        dy        dz
   5 c     dx  0.3644720
           dy  0.0117392 0.7035992
           dz  0.2848233 0.0327986 0.4990452
   6 c     dx -0.0898154 0.0387472-0.0324292 0.3673843
           dy -0.0027077-0.3498779-0.0127964-0.0294501 0.7071043
           dz -0.0336767 0.0398396-0.1037365 0.2957861-0.0195140 0.5037335
   7 o     dx  0.0031956 0.0007778-0.0049932 0.0080805-0.0148288 0.0000159
           dy -0.0041736 0.0040351-0.0069718-0.0007416-0.0565673-0.0002282
           dz -0.0060698 0.0007228-0.0017360 0.0011561-0.0301488 0.0080441
   8 s     dx -0.0007404 0.0006257-0.0019492-0.0004592-0.0068096 0.0001039
           dy -0.0004501-0.0014088 0.0018591 0.0018181 0.0046578 0.0015214
           dz  0.0002383-0.0015108 0.0011814 0.0018972 0.0077099 0.0009199
   9 h     dx -0.0005702 0.0005810 0.0006548 0.0018511 0.0026454-0.0046348
           dy  0.0005460-0.0007369 0.0007400 0.0020720-0.0004440 0.0022275
           dz  0.0004982 0.0009747-0.0004209-0.0047385 0.0025746-0.0002854
  10 h     dx  0.0032321-0.0024841-0.0047497-0.0004719-0.0005246 0.0007478
           dy -0.0021001-0.0013951-0.0028897-0.0004368-0.0011532-0.0005142
           dz -0.0046958-0.0034244 0.0009218 0.0007365-0.0006272-0.0001570
  11 h     dx  0.0024940 0.0184799-0.0003592 0.0022966 0.0014922-0.0057587
           dy -0.0007992-0.0086585-0.0014358 0.0016840 0.0010383 0.0019758
           dz -0.0010755 0.0230642 0.0026545-0.0057485 0.0014577-0.0003324
  12 h     dx -0.1158236-0.0808696-0.1007988 0.0049342 0.0027239 0.0014804
           dy -0.0808789-0.1527961-0.1056824-0.0166687-0.0137110-0.0214770
           dz -0.1008642-0.1058753-0.1686888 0.0008182 0.0028216 0.0048748
  13 h     dx  0.0024261-0.0005057-0.0009138-0.1357228 0.0683609-0.1244731
           dy  0.0181917-0.0069812 0.0226142 0.0696242-0.1089880 0.0859722
           dz -0.0001165-0.0009500 0.0029275-0.1251557 0.0843210-0.1915894
  14 o     dx  0.0000743 0.0001041 0.0003231-0.0002189-0.0001653-0.0000702
           dy -0.0001945 0.0000358-0.0004061-0.0000944-0.0002237 0.0000844
           dz -0.0006952 0.0006596-0.0001987-0.0002675-0.0036176 0.0003500

   ATOM              7 o                           8 s 
                  dx        dy        dz        dx        dy        dz
   7 o     dx  0.1129367
           dy -0.0688333 0.3741905
           dz -0.0555268 0.0144725 0.1673362
   8 s     dx -0.0857114 0.0729353 0.0488409 0.1729820
           dy  0.0684429-0.0660561-0.0292028-0.1464993 0.1444476
           dz  0.0634239-0.0364945-0.0787568 0.0885328-0.0369549 0.5676052
   9 h     dx -0.0019884 0.0005175 0.0036741-0.0007500 0.0008835-0.0018976
           dy -0.0010618 0.0016589-0.0007582 0.0008268-0.0001849 0.0003018
           dz  0.0037675-0.0009884-0.0000391-0.0006461 0.0003095 0.0004368
  10 h     dx -0.0002540 0.0002456 0.0001336 0.0001816-0.0001269-0.0002298
           dy  0.0015590-0.0021240 0.0008847-0.0003919 0.0003340 0.0008306
           dz  0.0000038-0.0000428-0.0000534 0.0000352-0.0000485-0.0000587
  11 h     dx -0.0005864 0.0001253 0.0006924-0.0000974 0.0001508-0.0001431
           dy  0.0001329-0.0002110-0.0000302-0.0001712 0.0001483 0.0001199
           dz  0.0007194 0.0000542-0.0001150 0.0000747-0.0001321-0.0000866
  12 h     dx -0.0000794 0.0002463 0.0000990 0.0000711-0.0000524-0.0000646
           dy -0.0002200-0.0023096-0.0012762-0.0005203 0.0002759 0.0005915
           dz  0.0001984 0.0001205 0.0000749-0.0000914 0.0001668 0.0001509
  13 h     dx -0.0017758 0.0007370 0.0032540 0.0000342 0.0002746-0.0004098
           dy  0.0001571 0.0024098 0.0009550 0.0002170-0.0002141-0.0007604
           dz  0.0031396 0.0008225 0.0001922 0.0001783-0.0007173-0.0007150
  14 o     dx  0.0132355-0.0136000 0.0150163-0.0771037 0.0568147-0.1508910
           dy -0.0085137 0.0077606-0.0150884 0.0535950-0.0415021 0.0952630
           dz  0.0050625-0.0114553-0.0280838-0.1418301 0.0845932-0.4887245

   ATOM              9 h                          10 h 
                  dx        dy        dz        dx        dy        dz
   9 h     dx  0.1139146
           dy  0.0910687 0.1647727
           dz  0.1131207 0.1171410 0.1691989
  10 h     dx -0.0023128 0.0000535 0.0024035 0.1382871
           dy -0.0003385 0.0012049-0.0003105-0.0721571 0.1093196
           dz  0.0024068 0.0003154-0.0012018 0.1386472-0.0881752 0.1974069
  11 h     dx  0.0001739-0.0007828 0.0000247-0.0020770 0.0003176 0.0024505
           dy  0.0002045-0.0006607 0.0002731-0.0002090 0.0008576-0.0001285
           dz  0.0000446-0.0009679 0.0002664 0.0024418 0.0005434-0.0009397
  12 h     dx -0.0005170-0.0000918 0.0003901-0.0003685-0.0005908-0.0004899
           dy -0.0000656 0.0000318-0.0000608 0.0004202 0.0004039 0.0005276
           dz  0.0003938-0.0000530-0.0003214-0.0004808-0.0007411-0.0006049
  13 h     dx -0.0001752 0.0004918-0.0005271-0.0005134 0.0000386 0.0003544
           dy -0.0005617 0.0004747-0.0007033 0.0000436 0.0000691 0.0000749
           dz -0.0006124 0.0005120-0.0004324 0.0003541 0.0000636-0.0003331
  14 o     dx  0.0007565 0.0001637 0.0006228-0.0000478-0.0000964 0.0000210
           dy -0.0007972-0.0006663-0.0006232-0.0000220 0.0000812 0.0000063
           dz  0.0009772-0.0002873-0.0005594 0.0000934-0.0003415 0.0000653

   ATOM             11 h                          12 h 
                  dx        dy        dz        dx        dy        dz
  11 h     dx  0.0398362
           dy -0.0233334 0.3587521
           dz  0.0169507-0.0187376 0.0465244
  12 h     dx -0.0020117 0.0001146 0.0024792 0.1132255
           dy -0.0004204 0.0007908-0.0003934 0.0868184 0.1591424
           dz  0.0024492 0.0002564-0.0008660 0.1129828 0.1138009 0.1721490
  13 h     dx  0.0001048-0.0001040-0.0001315-0.0023593 0.0001329 0.0024508
           dy  0.0008812-0.0004702 0.0011162-0.0003233 0.0012189-0.0002767
           dz -0.0000743-0.0001432 0.0000962 0.0023920 0.0003718-0.0011895
  14 o     dx  0.0000598 0.0000674 0.0000541-0.0000007-0.0000159 0.0000170
           dy -0.0000769-0.0000630-0.0000083 0.0000384 0.0000077-0.0000604
           dz  0.0001446-0.0000689-0.0000144 0.0000591-0.0003126-0.0000674

   ATOM             13 h                          14 o 
                  dx        dy        dz        dx        dy        dz
  13 h     dx  0.1352048
           dy -0.0753080 0.1112863
           dz  0.1375307-0.0925840 0.1962887
  14 o     dx  0.0000837 0.0000705 0.0000823 0.0619261
           dy -0.0001359-0.0000606-0.0000037-0.0431064 0.0323368
           dz  0.0004052 0.0003284 0.0001750 0.1371194-0.0796859 0.5178969
 

   *** projected hessian written onto $hessian (projected), file=<hessian> ***

 dipole moment in principle axis system (a.u.) :
    -0.0768429395    -0.6204728733    -0.4539810550
 norm :  0.772651423406980     

 rotational constants b for rotations around axis of inertia
 and optical intensities for (1 <-- 0) transition

   b   :     0.0257175126     0.1196075253     0.0298057225   (cm**(-1))
   b   :         770.9916        3585.7434         893.5531     (MHz)
  int. :     0.0059048373     0.3849865865     0.2060987983     (a.u.)

   x   :     0.8600674408    -0.1965152919     0.4708139095
   y   :     0.2963574422     0.9436161407    -0.1475155770
   z   :    -0.4152785376     0.2664025508     0.8698122884

   ***  normal modes written onto $vibrational normal modes, file=<vib_normal_modes>  ***

   ***  vibrational spectroscopic data written onto$vibrational spectrum   
        file=<vibspectrum>  ***

          ---------------------------------------------------
          NORMAL MODES and VIBRATIONAL FREQUENCIES (cm**(-1))
          ---------------------------------------------------

 imaginary wave numbers indicate a negative curvature of the energy surface.
 zero frequency modes have no physical meaning except being generators of
 translations and rotations. each vibrational normal mode - given in terms of
 cartesian displacement vectors of all atoms - has been normalized to unity.
 to obtain mass-weigthed normal coordinates in a.u. divide the tabulated
 modes by sqrt(reduced mass * 1822.88853).
 band intensities or cross sections refer to independent non-degenerate normal
 modes, that is, the intensities of degenerate modes have yet to be added.
 dDIP/dQ is the normal mode derivative of the dipole moment.


       mode               1        2        3        4        5        6

     frequency           0.00     0.00     0.00     0.00     0.00     0.00

     symmetry                                                             

        IR                -        -        -        -        -        - 
|dDIP/dQ|   (a.u.)     0.0000   0.0000   0.0000   0.0000   0.0000   0.0000
intensity (km/mol)       0.00     0.00     0.00     0.00     0.00     0.00
intensity (  %   )       0.00     0.00     0.00     0.00     0.00     0.00
 
       RAMAN              -        -        -        -        -        - 
 
  1   c           x   0.01531 -0.03128  0.20971  0.09089 -0.11594 -0.00506
                  y   0.01519  0.23550 -0.01049 -0.03415 -0.09063  0.05234
                  z   0.10571  0.02342  0.09330  0.02033  0.09617  0.22914
  2   c           x  -0.09397  0.03081  0.03764  0.21747 -0.06595  0.00843
                  y   0.06206  0.27371 -0.07304  0.05852 -0.04304 -0.04577
                  z   0.22103 -0.00545  0.19781 -0.03018  0.08243  0.16272
  3   c           x  -0.04449  0.05268 -0.09628  0.32184 -0.09336  0.01526
                  y   0.06720  0.27727 -0.08072  0.06822 -0.03966 -0.05393
                  z   0.25026  0.02890  0.22221  0.01267  0.16980  0.01914
  4   c           x   0.11220  0.01276 -0.05764  0.29917 -0.16974  0.00863
                  y   0.02623  0.24307 -0.02712 -0.01334 -0.08360  0.03512
                  z   0.16600  0.09076  0.14379  0.10403  0.26869 -0.05631
  5   c           x   0.22035 -0.04944  0.11587  0.17143 -0.21914 -0.00492
                  y  -0.02035  0.20500  0.03490 -0.10550 -0.13119  0.13303
                  z   0.05128  0.11874  0.03986  0.15330  0.28075  0.01201
  6   c           x   0.17204 -0.07172  0.25051  0.06657 -0.19229 -0.01182
                  y  -0.02620  0.20104  0.04379 -0.11649 -0.13476  0.14194
                  z   0.02015  0.08526  0.01372  0.11181  0.19448  0.15547
  7   o           x  -0.02621 -0.05642  0.35086 -0.01865 -0.09228 -0.01255
                  y   0.01016  0.23049 -0.00498 -0.04474 -0.09839  0.06661
                  z   0.07896 -0.01194  0.07117 -0.02414  0.00766  0.37248
  8   s           x  -0.20596 -0.00882  0.29884  0.01324 -0.00485 -0.00447
                  y  -0.01893  0.24864  0.08891 -0.07225 -0.00557 -0.04492
                  z  -0.05943  0.01603 -0.05392  0.02757  0.00959  0.47249
  9   h           x  -0.21527  0.06109  0.01035  0.23303 -0.00677  0.01340
                  y   0.09368  0.29999 -0.11456  0.12139 -0.00946 -0.11403
                  z   0.28597 -0.05389  0.25829 -0.10162  0.00453  0.22321
 10   h           x  -0.12906  0.10120 -0.23144  0.42133 -0.05472  0.02581
                  y   0.10364  0.30701 -0.12929  0.14029 -0.00255 -0.13037
                  z   0.34001  0.00687  0.30353 -0.02606  0.16006 -0.03388
 11   h           x   0.15030  0.03003 -0.16253  0.38088 -0.19089  0.01399
                  y   0.03064  0.24605 -0.03379 -0.00507 -0.08091  0.02841
                  z   0.18989  0.11710  0.16381  0.13674  0.33631 -0.16837
 12   h           x   0.34305 -0.08087  0.14687  0.15311 -0.27893 -0.01015
                  y  -0.05237  0.17819  0.07670 -0.16931 -0.16576  0.20297
                  z  -0.01453  0.16691 -0.02138  0.22447  0.35769 -0.04650
 13   h           x   0.25467 -0.12016  0.38698 -0.03400 -0.22994 -0.02241
                  y  -0.06211  0.17161  0.09149 -0.18759 -0.17167  0.21774
                  z  -0.06849  0.10603 -0.06654  0.14874  0.20195  0.21082
 14   o           x  -0.38401  0.07233  0.10328  0.15476  0.07852  0.01232
                  y   0.01587  0.29376  0.06452  0.00853  0.07871 -0.18673
                  z   0.00000  0.00000  0.00000  0.00000  0.00000  0.44176

reduced mass(g/mol)     7.686    9.473    9.228    5.618    6.181   15.301


       mode               7        8        9       10       11       12

     frequency          19.57    63.90   108.46   246.41   342.48   423.39

     symmetry            a        a        a        a        a        a   

        IR               YES      YES      YES      YES      YES      YES
|dDIP/dQ|   (a.u.)     0.0009   0.0016   0.0010   0.0004   0.0011   0.0001
intensity (km/mol)       1.44     4.63     1.88     0.26     2.29     0.03
intensity (  %   )       0.87     2.80     1.14     0.16     1.38     0.02
 
       RAMAN             YES      YES      YES      YES      YES      YES
 
  1   c           x  -0.09118  0.13578  0.14710  0.08499 -0.11322  0.00678
                  y  -0.03562 -0.02117  0.11390 -0.03820 -0.01787 -0.00034
                  z  -0.01566  0.08081 -0.14055 -0.16255 -0.20268  0.00494
  2   c           x  -0.20992  0.16883  0.07106  0.17073 -0.20079  0.17068
                  y  -0.00551 -0.14228  0.13778 -0.02515  0.09850  0.00031
                  z   0.09989 -0.01756 -0.06729 -0.22266 -0.10098 -0.12767
  3   c           x  -0.14343  0.07467 -0.11481  0.02106 -0.04077 -0.16068
                  y  -0.00207 -0.15608  0.13761 -0.02514  0.15125 -0.00886
                  z   0.08835 -0.11636  0.11025 -0.03353  0.03950  0.12761
  4   c           x   0.05501 -0.06967 -0.20538 -0.16623  0.13846 -0.00314
                  y  -0.02821 -0.04557  0.12093 -0.07634  0.05540 -0.00070
                  z  -0.04141 -0.10609  0.19611  0.15953 -0.00626 -0.00274
  5   c           x   0.18285 -0.11458 -0.06110  0.02071 -0.01197  0.15999
                  y  -0.05706  0.07683  0.10183 -0.10248 -0.08421  0.00643
                  z  -0.16153  0.00232  0.06786 -0.00825  0.02680 -0.13016
  6   c           x   0.10800 -0.00409  0.11791  0.17620 -0.20583 -0.15876
                  y  -0.06222  0.09131  0.10379 -0.09546 -0.08362 -0.00231
                  z  -0.14755  0.09252 -0.10510 -0.20088 -0.09455  0.13633
  7   o           x  -0.17303  0.24004  0.09686 -0.11382  0.26030 -0.00422
                  y  -0.04030  0.00376  0.11916 -0.03131  0.01436 -0.00248
                  z  -0.02179  0.19620 -0.10253  0.01398  0.00141 -0.00494
  8   s           x  -0.05401 -0.18830 -0.10973  0.01260  0.11618 -0.00257
                  y  -0.03946 -0.16150 -0.25654  0.08950 -0.13219  0.00251
                  z   0.07647 -0.06528  0.03466  0.09654  0.04042  0.00006
  9   h           x  -0.35291  0.26818  0.10227  0.24522 -0.30453  0.36054
                  y   0.01054 -0.21691  0.15570 -0.00258  0.25005  0.00158
                  z   0.19567 -0.02130 -0.10994 -0.29971 -0.16339 -0.27586
 10   h           x  -0.23850  0.10693 -0.21083 -0.00354 -0.03652 -0.36079
                  y   0.02163 -0.25481  0.14920  0.01840  0.27506 -0.01950
                  z   0.17930 -0.19987  0.19471  0.01180  0.10645  0.28363
 11   h           x   0.11242 -0.14849 -0.37973 -0.39481  0.32216 -0.00717
                  y  -0.02441 -0.05622  0.11783 -0.07921  0.06849 -0.00108
                  z  -0.05059 -0.17982  0.35554  0.38729 -0.02195 -0.00262
 12   h           x   0.33868 -0.22967 -0.10958 -0.01581  0.03692  0.35438
                  y  -0.07534  0.16224  0.08306 -0.12951 -0.21424  0.01611
                  z  -0.26516  0.01460  0.12202  0.04334  0.10443 -0.28828
 13   h           x   0.20157 -0.02609  0.18907  0.23357 -0.30380 -0.34361
                  y  -0.08336  0.18651  0.09299 -0.14661 -0.22976 -0.00095
                  z  -0.23561  0.16867 -0.16909 -0.27889 -0.10715  0.28580
 14   o           x   0.35148 -0.00418  0.18278 -0.14632 -0.14922 -0.00200
                  y   0.27204  0.47904 -0.18015  0.14568  0.15145  0.00180
                  z   0.01322 -0.00334 -0.03770  0.15272  0.17660 -0.00157

reduced mass(g/mol)     6.950    9.827    8.030    5.691    6.705    2.925


       mode              13       14       15       16       17       18

     frequency         458.53   481.56   573.35   625.06   706.75   711.53

     symmetry            a        a        a        a        a        a   

        IR               YES      YES      YES      YES      YES      YES
|dDIP/dQ|   (a.u.)     0.0024   0.0032   0.0022   0.0007   0.0031   0.0061
intensity (km/mol)      10.64    17.65     8.64     0.81    16.66    65.33
intensity (  %   )       6.44    10.68     5.23     0.49    10.08    39.54
 
       RAMAN             YES      YES      YES      YES      YES      YES
 
  1   c           x  -0.15403 -0.24321 -0.15769 -0.08231 -0.05558  0.13031
                  y   0.08478 -0.10913  0.11310  0.01077 -0.06524 -0.11018
                  z  -0.07707  0.14702  0.15608 -0.08843  0.05350 -0.09401
  2   c           x  -0.12588  0.02814 -0.06621 -0.10335  0.07274 -0.03392
                  y  -0.08208  0.05234  0.00431 -0.26145 -0.01939 -0.03709
                  z  -0.18958 -0.01878  0.02874 -0.12634  0.01976  0.15942
  3   c           x   0.00598  0.12857  0.03746  0.16672 -0.04505  0.20442
                  y  -0.06462  0.09885 -0.02832 -0.24951 -0.01990 -0.02632
                  z  -0.03038 -0.02245 -0.13754  0.19298  0.12826 -0.00001
  4   c           x   0.02694 -0.13971 -0.13346  0.07453  0.03622 -0.10915
                  y  -0.20352  0.16457 -0.13419 -0.01103  0.08074  0.13756
                  z   0.10020  0.12244  0.09029  0.10672 -0.03862  0.07258
  5   c           x   0.10345  0.06387  0.11763  0.14535 -0.12988  0.05806
                  y  -0.14943  0.06370 -0.03190  0.29412 -0.01667 -0.02900
                  z   0.06469 -0.11168 -0.03400  0.18095  0.02548 -0.18405
  6   c           x  -0.03995 -0.05429  0.02193 -0.12300  0.00450 -0.15571
                  y  -0.10171  0.03917 -0.01361  0.23251 -0.02135 -0.04463
                  z  -0.07011 -0.11016  0.13784 -0.13480 -0.06986 -0.00607
  7   o           x   0.29956  0.00069  0.05885 -0.07116  0.08958  0.13397
                  y   0.23872 -0.15295  0.13906  0.01501 -0.04099 -0.05610
                  z   0.28357  0.21662 -0.23214 -0.09402 -0.11207 -0.14497
  8   s           x  -0.17407  0.04519  0.02388  0.01647 -0.05384 -0.08370
                  y   0.17316 -0.04411 -0.04973 -0.01954  0.04707  0.07923
                  z   0.01999 -0.06150  0.02001 -0.00266  0.04228  0.06069
  9   h           x  -0.05474  0.17174  0.25439 -0.13347  0.39960 -0.32054
                  y  -0.06237  0.20026 -0.12388 -0.16496  0.04423  0.06129
                  z  -0.26435 -0.27403 -0.09851 -0.19052 -0.29330  0.29370
 10   h           x   0.11089  0.33036  0.36270  0.22557  0.17556  0.11084
                  y   0.13352  0.06228  0.03172 -0.10244 -0.10533 -0.18268
                  z   0.00044 -0.20948 -0.36497  0.23198 -0.09937 -0.01373
 11   h           x   0.02619 -0.22872 -0.09377 -0.20030  0.41325 -0.39384
                  y  -0.20207  0.16296 -0.13153 -0.05440  0.08867  0.12755
                  z   0.13650  0.19811  0.08750 -0.24923 -0.35310  0.27643
 12   h           x   0.18408  0.33648  0.37679  0.20690  0.15030  0.05610
                  y  -0.16870 -0.03276  0.08815  0.19986 -0.08716 -0.17396
                  z   0.01589 -0.23398 -0.34114  0.21895 -0.12765 -0.05406
 13   h           x  -0.05039  0.17865  0.27265 -0.15271  0.38148 -0.38195
                  y  -0.37544  0.10821 -0.06891  0.07940  0.06160  0.06544
                  z  -0.23574 -0.25284 -0.09865 -0.20173 -0.32295  0.24139
 14   o           x   0.17344  0.02169 -0.04520 -0.01696  0.01043  0.02174
                  y  -0.15540 -0.02256  0.04151  0.01526 -0.00707 -0.01391
                  z  -0.14991 -0.04950  0.06220  0.01295  0.01373  0.01563

reduced mass(g/mol)     9.723    4.800    4.228    6.552    2.305    4.478


       mode              19       20       21       22       23       24

     frequency         793.10   848.97   864.44   937.83   993.22  1014.59

     symmetry            a        a        a        a        a        a   

        IR               YES      YES      YES      YES      YES      YES
|dDIP/dQ|   (a.u.)     0.0056   0.0016   0.0096   0.0024   0.0002   0.0003
intensity (km/mol)      56.49     4.53   165.25    10.04     0.07     0.14
intensity (  %   )      34.18     2.74   100.00     6.08     0.04     0.09
 
       RAMAN             YES      YES      YES      YES      YES      YES
 
  1   c           x  -0.15681 -0.00030 -0.02211  0.07207 -0.00031 -0.00072
                  y  -0.01198  0.00117  0.01575  0.00734 -0.00219 -0.00293
                  z   0.12550  0.00080  0.01651 -0.05579  0.00010  0.00047
  2   c           x   0.06321 -0.07017  0.09988 -0.08376  0.06554  0.03101
                  y  -0.00476  0.00207 -0.05294 -0.00181  0.00287  0.00181
                  z  -0.02903  0.03985  0.13122  0.07049 -0.04711 -0.02096
  3   c           x   0.02686 -0.05997  0.11164  0.01085 -0.07381 -0.07350
                  y  -0.00872  0.00708 -0.13187 -0.00463  0.00005 -0.00017
                  z   0.00444  0.02869  0.20184 -0.00057  0.05552  0.05413
  4   c           x   0.08653 -0.00058 -0.02381  0.07120 -0.00630  0.08248
                  y   0.01813 -0.00747  0.11604  0.00330 -0.00429 -0.00022
                  z  -0.07258  0.00133  0.00144 -0.05521  0.00572 -0.06564
  5   c           x   0.00538  0.05898 -0.11364  0.00726  0.08207 -0.05939
                  y  -0.00866  0.01370 -0.18137 -0.00581  0.00258  0.00025
                  z  -0.02469 -0.03049 -0.16421 -0.01462 -0.06213  0.05164
  6   c           x   0.04909  0.07129 -0.04937 -0.08838 -0.06738  0.01981
                  y  -0.00524  0.00678 -0.08102 -0.00417  0.00058  0.00184
                  z  -0.04902 -0.04098 -0.14118  0.06273  0.04679 -0.01915
  7   o           x   0.05040  0.00939 -0.14529 -0.02735  0.00082  0.00346
                  y   0.01468 -0.02781  0.41299  0.01010 -0.00063 -0.00125
                  z  -0.06660 -0.00471  0.08284  0.02727 -0.00014 -0.00293
  8   s           x  -0.00965 -0.00466  0.07727  0.00562 -0.00071 -0.00096
                  y   0.00204  0.00409 -0.07024 -0.00243  0.00069  0.00069
                  z   0.00936  0.00401 -0.05705 -0.00245 -0.00069 -0.00028
  9   h           x  -0.02983  0.41471  0.18686  0.46178 -0.33271 -0.18971
                  y   0.00238  0.00846 -0.02749  0.00300 -0.00401 -0.00119
                  z   0.03835 -0.34665  0.05516 -0.36127  0.27160  0.15492
 10   h           x  -0.40873  0.33863  0.25728 -0.03049  0.39640  0.41763
                  y  -0.04382  0.03291 -0.38636 -0.01056  0.01004  0.00838
                  z   0.33774 -0.27998 -0.05590  0.02982 -0.31969 -0.33911
 11   h           x  -0.46340  0.00533  0.11087 -0.40576  0.03976 -0.47388
                  y   0.00364 -0.00693  0.11385 -0.00881 -0.00296 -0.01436
                  z   0.35996 -0.00395 -0.09562  0.32744 -0.02821  0.37526
 12   h           x  -0.42780 -0.34474 -0.09359 -0.06427 -0.44557  0.36987
                  y  -0.03616  0.02084 -0.41180 -0.01519 -0.01260  0.01026
                  z   0.33307  0.27453  0.01738  0.04826  0.35735 -0.28766
 13   h           x  -0.04116 -0.41938 -0.30148  0.44915  0.34316 -0.15459
                  y   0.00686 -0.00756 -0.07299  0.00834  0.01091 -0.00639
                  z   0.03042  0.34579  0.05234 -0.36262 -0.27739  0.11623
 14   o           x  -0.00043  0.00086 -0.02157 -0.00169  0.00069  0.00063
                  y   0.00139 -0.00090  0.01400  0.00056 -0.00053 -0.00034
                  z   0.01263 -0.00207 -0.00108 -0.00758  0.00214  0.00190

reduced mass(g/mol)     1.837    1.270    6.825    1.482    1.366    1.314


       mode              25       26       27       28       29       30

     frequency        1024.23  1053.37  1100.27  1173.47  1176.78  1185.81

     symmetry            a        a        a        a        a        a   

        IR               YES      YES      YES      YES      YES      YES
|dDIP/dQ|   (a.u.)     0.0009   0.0022   0.0022   0.0074   0.0031   0.0042
intensity (km/mol)       1.59     8.45     8.26    97.90    16.96    31.29
intensity (  %   )       0.96     5.11     5.00    59.24    10.26    18.94
 
       RAMAN             YES      YES      YES      YES      YES      YES
 
  1   c           x   0.00364 -0.00014 -0.01983 -0.01143 -0.00732  0.00437
                  y  -0.06831 -0.00952 -0.00128  0.14079  0.03520  0.01026
                  z   0.00793  0.00188 -0.02709 -0.00072 -0.00594  0.00073
  2   c           x   0.20317  0.03477  0.01706  0.01776  0.01057  0.01222
                  y   0.21483 -0.05052  0.09549 -0.01163  0.01246 -0.03823
                  z   0.27066  0.04308  0.02499  0.01397  0.01145  0.01659
  3   c           x  -0.04717 -0.10044  0.03693  0.03275  0.02143  0.02236
                  y   0.02520  0.00754 -0.05047 -0.00675  0.03169  0.04555
                  z  -0.07047 -0.12830  0.04536  0.04123  0.02844  0.02949
  4   c           x   0.02280 -0.01412 -0.04652  0.01971 -0.04004 -0.00503
                  y  -0.35508  0.15404 -0.00844  0.00226 -0.00707  0.00323
                  z   0.02414 -0.01218 -0.05865  0.02544 -0.05061 -0.00662
  5   c           x   0.04765  0.09989  0.02193 -0.05030  0.01065 -0.02620
                  y   0.04484  0.04059  0.05943  0.01064 -0.03162  0.02334
                  z   0.06284  0.12604  0.02904 -0.06284  0.01240 -0.03189
  6   c           x  -0.23063 -0.02473  0.03418 -0.01921  0.00392 -0.00849
                  y   0.14273 -0.06198 -0.08675 -0.00898 -0.00879 -0.03111
                  z  -0.29181 -0.03258  0.04133 -0.02727  0.00395 -0.01003
  7   o           x   0.00820 -0.00248  0.00508  0.00566  0.00333  0.00024
                  y   0.00235  0.01779 -0.00090 -0.06405 -0.01571 -0.00965
                  z  -0.00838  0.00043  0.00811  0.00227  0.00322  0.00245
  8   s           x  -0.00586  0.00081 -0.00022  0.02572  0.00939 -0.02760
                  y   0.00458 -0.00082  0.00051 -0.01776 -0.00622  0.01739
                  z  -0.00198 -0.00098 -0.00221  0.08516  0.03123 -0.08862
  9   h           x   0.28472  0.19089 -0.15391  0.15711  0.09689  0.20470
                  y   0.16905 -0.36425  0.46917 -0.35387 -0.17922 -0.41698
                  z   0.27528  0.21047 -0.17921  0.23535  0.12755  0.21834
 10   h           x  -0.09568 -0.20465 -0.01897  0.05399  0.13009  0.14622
                  y  -0.04038 -0.32376 -0.27715  0.05034  0.42518  0.50734
                  z  -0.04932 -0.25231 -0.03203  0.06305  0.17279  0.19870
 11   h           x   0.03998 -0.01474 -0.28660  0.20828 -0.44519 -0.05670
                  y  -0.36690  0.16904 -0.04631  0.02786 -0.07116 -0.00586
                  z   0.00387 -0.02221 -0.36224  0.26525 -0.56118 -0.07152
 12   h           x   0.06631  0.23354 -0.08276 -0.21429  0.15364 -0.15183
                  y  -0.00810 -0.24294  0.29407  0.36183 -0.34602  0.29939
                  z   0.07384  0.29430 -0.09087 -0.25932  0.18378 -0.18373
 13   h           x  -0.28956 -0.13045 -0.07602 -0.17437  0.01879 -0.11201
                  y   0.05630 -0.45466 -0.51912 -0.51864  0.05347 -0.41468
                  z  -0.31696 -0.18246 -0.12388 -0.22359  0.02861 -0.16108
 14   o           x   0.00359 -0.00027  0.00147 -0.05109 -0.01869  0.05373
                  y  -0.00271  0.00033 -0.00112  0.03206  0.01165 -0.03304
                  z   0.01072  0.00007  0.00471 -0.17038 -0.06251  0.17641

reduced mass(g/mol)     6.157    1.997    1.429    2.170    1.218    1.911


       mode              31       32       33       34       35       36

     frequency        1223.03  1330.09  1366.19  1491.52  1526.73  1655.99

     symmetry            a        a        a        a        a        a   

        IR               YES      YES      YES      YES      YES      YES
|dDIP/dQ|   (a.u.)     0.0075   0.0004   0.0007   0.0014   0.0064   0.0038
intensity (km/mol)      99.49     0.36     0.85     3.40    72.84    25.80
intensity (  %   )      60.21     0.22     0.51     2.05    44.08    15.62
 
       RAMAN             YES      YES      YES      YES      YES      YES
 
  1   c           x   0.02246 -0.10213  0.11968 -0.09566  0.01062 -0.11145
                  y  -0.35448 -0.01100  0.01105 -0.01354 -0.15791  0.15369
                  z   0.01721 -0.13162  0.15764 -0.12182  0.00591 -0.13272
  2   c           x   0.01030  0.00922 -0.10341  0.02641 -0.07606  0.13134
                  y  -0.08491  0.03282  0.23175  0.11029  0.07571 -0.29925
                  z   0.01473  0.01222 -0.12688  0.03564 -0.09271  0.15639
  3   c           x  -0.04444  0.03246 -0.05055  0.02279  0.06064 -0.02981
                  y   0.09333  0.05590 -0.19268 -0.14762  0.11181  0.22915
                  z  -0.05323  0.04245 -0.06837  0.02475  0.07971 -0.03182
  4   c           x  -0.00312  0.00130  0.17335 -0.09551  0.00815  0.11313
                  y   0.00660  0.00076  0.03036 -0.01321 -0.10572 -0.12319
                  z  -0.00360  0.00156  0.21968 -0.12062  0.00700  0.13829
  5   c           x   0.03386  0.04017 -0.07315  0.00289 -0.07653 -0.12891
                  y   0.09783 -0.04466  0.17528  0.14939  0.09422  0.29639
                  z   0.04511  0.04928 -0.08723  0.00835 -0.09348 -0.15285
  6   c           x   0.00377  0.01060 -0.06918  0.03947  0.06436  0.02781
                  y  -0.08169 -0.03179 -0.26616 -0.10231  0.09395 -0.23179
                  z   0.00457  0.01291 -0.09652  0.04647  0.08434  0.02779
  7   o           x  -0.01131  0.00778  0.00437  0.00954  0.00013 -0.00054
                  y   0.16197 -0.00141  0.00886  0.00106  0.02636 -0.00187
                  z  -0.01544  0.01280  0.00534  0.01426 -0.00423  0.01094
  8   s           x   0.01769 -0.00067  0.00036  0.00007 -0.00118  0.00277
                  y  -0.00820  0.00079 -0.00082  0.00036  0.00217 -0.00324
                  z   0.06006 -0.00198 -0.00202 -0.00059  0.00363 -0.00542
  9   h           x  -0.03097  0.21320  0.16180  0.13827  0.13659 -0.16183
                  y   0.00174 -0.39253 -0.35931 -0.09741 -0.40230  0.33431
                  z  -0.06021  0.25586  0.21369  0.17343  0.16032 -0.19786
 10   h           x   0.08289 -0.09152 -0.00964  0.15960 -0.08477 -0.13890
                  y   0.59301 -0.41709 -0.05038  0.30796 -0.45755 -0.12807
                  z   0.12047 -0.12720 -0.01989  0.20639 -0.11999 -0.17472
 11   h           x  -0.00138 -0.13404 -0.29204  0.41312  0.01207 -0.10500
                  y   0.01477 -0.02028 -0.04152  0.06662 -0.12797 -0.17599
                  z  -0.00255 -0.16850 -0.36853  0.52369  0.01084 -0.13490
 12   h           x  -0.17745 -0.15425 -0.02633  0.19380  0.15277  0.15290
                  y   0.57522  0.38839  0.07234 -0.23616 -0.42456 -0.32116
                  z  -0.20363 -0.18276 -0.03050  0.23691  0.17949  0.18227
 13   h           x   0.05024  0.14119  0.11066  0.12029 -0.06319  0.13767
                  y   0.01039  0.42698  0.39512  0.13797 -0.41625  0.12790
                  z   0.04955  0.19153  0.16070  0.15534 -0.09913  0.17805
 14   o           x  -0.03646  0.00147  0.00085  0.00051 -0.00080  0.00067
                  y   0.02190 -0.00078 -0.00043 -0.00029  0.00037 -0.00013
                  z  -0.11746  0.00304  0.00277  0.00081 -0.00440  0.00538

reduced mass(g/mol)     3.602    1.479    5.103    2.351    2.368    6.178


       mode              37       38       39       40       41       42

     frequency        1658.10  3189.05  3198.73  3210.02  3217.35  3230.32

     symmetry            a        a        a        a        a        a   

        IR               YES      YES      YES      YES      YES      YES
|dDIP/dQ|   (a.u.)     0.0023   0.0003   0.0019   0.0025   0.0015   0.0004
intensity (km/mol)       9.16     0.20     6.44    11.07     4.17     0.22
intensity (  %   )       5.55     0.12     3.90     6.70     2.52     0.13
 
       RAMAN             YES      YES      YES      YES      YES      YES
 
  1   c           x   0.19152 -0.00006 -0.00027 -0.00076  0.00147  0.00223
                  y   0.11610 -0.00081 -0.00069 -0.00249  0.00228 -0.00282
                  z   0.24835 -0.00015 -0.00037 -0.00107  0.00192  0.00260
  2   c           x  -0.09233 -0.00455  0.00682 -0.00806 -0.00632 -0.04204
                  y  -0.07001 -0.00402  0.00598 -0.00698 -0.00689 -0.05003
                  z  -0.11809 -0.00573  0.00861 -0.01014 -0.00801 -0.05334
  3   c           x   0.12963  0.02284 -0.03436  0.02203  0.01109 -0.01392
                  y   0.24451 -0.01742  0.02500 -0.01317 -0.00559  0.01304
                  z   0.16966  0.02814 -0.04237  0.02724  0.01373 -0.01719
  4   c           x  -0.20434 -0.00360  0.00306  0.00331  0.00406  0.00004
                  y  -0.10559  0.04954 -0.01222 -0.05600 -0.04146  0.00940
                  z  -0.26054 -0.00297  0.00348  0.00240  0.00378  0.00031
  5   c           x   0.09119 -0.02474 -0.02614 -0.00249 -0.02402  0.00261
                  y   0.07626 -0.02955 -0.02914  0.00216 -0.02871  0.00251
                  z   0.11781 -0.03215 -0.03392 -0.00307 -0.03123  0.00339
  6   c           x  -0.12759  0.01127  0.01657  0.03111 -0.03313  0.00094
                  y  -0.25047 -0.00703 -0.01053 -0.02260  0.02672 -0.00029
                  z  -0.16907  0.01403  0.02065  0.03867 -0.04109  0.00115
  7   o           x  -0.00984  0.00001 -0.00004  0.00001  0.00001 -0.00018
                  y   0.00011 -0.00002  0.00009  0.00032 -0.00036  0.00049
                  z  -0.00866 -0.00003 -0.00005  0.00001 -0.00007 -0.00009
  8   s           x   0.00117 -0.00002  0.00001 -0.00001 -0.00003 -0.00003
                  y  -0.00223  0.00003  0.00000  0.00004  0.00000  0.00005
                  z  -0.00323  0.00004  0.00002  0.00002 -0.00001 -0.00008
  9   h           x  -0.08072  0.05252 -0.07817  0.08838  0.07230  0.47273
                  y  -0.14107  0.06111 -0.09088  0.10218  0.08556  0.56404
                  z  -0.09814  0.06711 -0.09994  0.11286  0.09250  0.60409
 10   h           x  -0.02517 -0.27233  0.39664 -0.23941 -0.11617  0.15440
                  y  -0.36419  0.19688 -0.28552  0.16890  0.08050 -0.11400
                  z  -0.03941 -0.33586  0.48919 -0.29540 -0.14334  0.19070
 11   h           x   0.24282  0.04458 -0.01352 -0.04660 -0.03574  0.00636
                  y  -0.04578 -0.58966  0.14513  0.62892  0.45673 -0.09642
                  z   0.30532  0.03730 -0.01238 -0.03849 -0.03042  0.00514
 12   h           x   0.08170  0.29421  0.29667  0.01266  0.26434 -0.02642
                  y   0.13390  0.34320  0.34366  0.00877  0.30779 -0.02991
                  z   0.10712  0.38239  0.38527  0.01610  0.34355 -0.03420
 13   h           x   0.03051 -0.13258 -0.19182 -0.35309  0.37371 -0.00839
                  y   0.36512  0.09869  0.14276  0.26606 -0.28485  0.00606
                  z   0.05792 -0.16509 -0.23862 -0.43930  0.46476 -0.01072
 14   o           x   0.00076  0.00001 -0.00004  0.00003  0.00004  0.00016
                  y  -0.00048 -0.00001  0.00004 -0.00004 -0.00004 -0.00020
                  z   0.00307 -0.00004 -0.00001 -0.00003 -0.00001  0.00003

reduced mass(g/mol)     6.524    1.086    1.090    1.093    1.097    1.095
 

         **************************************************************
         *                                                            *
         *  zero point VIBRATIONAL energy  :      0.0984719  Hartree  *
         *    SCF-energy                   :   -779.8246024           *
         *    SCF + E(vib0)                :   -779.7261305           *
         *                                                            *
         **************************************************************




 time elapsed for vibrational analysis     0.06 sec


    ------------------------------------------------------------------------
         total  cpu-time : 20 hours 29 minutes and 44 seconds
         total wall-time :  5 hours  7 minutes and 57 seconds
    ------------------------------------------------------------------------

   ****  force : all done  ****


    2019-02-05 15:20:33.532 

aoforce ended normally 
