   This run of MOLCAS is using the pymolcas driver

                             OPE
                             OPE          NMOL  CASOP  ENMOLC A   SO
                 OPE        NMOLC        AS  OP EN  MO LC     AS  OP
                OPENM       OL CA        SO  PE NM  OL CA     SOP EN
                OP EN      MO   LC       AS  OP ENMOL  CASO   PENMOL
                OP  EN     MO   LC       AS  OP EN     MO     LC ASO
               OP   E  NMOL  C  AS       OP  EN MO     LC     AS  OP
               OP  E   NMO   LC AS        OPEN  MO     LCASOP EN   M
               O  PEN   MO  LCA  SO
            OPE   NMO   L   CAS    OP
        OPENMOL  CASOP     ENMOL   CASOPE
     OPENMOLCA   SOPENMOLCASOPEN   MOLCASOPE
    OPENMOLCAS   OP           EN   MOL    CAS
    OPENMOLCAS       OP  ENM        O     LCA
    OPENMOLCAS    OPEN  MOLCASO     P  E  NMO
    OPENMOLCAS     OP               E  N  MOL
    OPENMOLCA   SO           PENM   O  L  CAS    OPEN    MO    LCAS
    OPENMOLCA   SOP           ENM   O  L  CAS   OP  EN  MOLC  AS   O
    OPENMOLCA   SOPE           NM      O  LCA   S      OP  EN MO
    OPENMOLC                AS         O  PEN   M      OL  CA  SOPE
    OPENMO        LCASOPE  NMOL        C  ASO   P      ENMOLC     AS
    OPE     NMO      LCA  SO     P     E   NM   OL  CA SO  PE N   MO
          OPENMOLCA            SOPE   NMO        LCAS  O    P  ENMO
     OPENMOLCASOPENMOLCASOPENMOLCASOPENMOLCA
        OPENMOLCASOPENMOLCASOPENMOLCASOPE
            OPENMOLCASOPENMOLCASOPENM
               OPENMOLCASOPENMOLCA        version: 18.09
                   OPENMOLCASO
                       OPE                tag: 50-g6d6e5e5-dirty

 OpenMolcas is free software; you can redistribute it and/or modify it
 under the terms of the GNU Lesser General Public License version 2.1.
 OpenMolcas is distributed in the hope that it will be useful, but it
 is provided "as is" and without any express or implied warranties.
 For more details see the full text of the license in the file
 LICENSE or in <http://www.gnu.org/licenses/>.

                 Copyright (C) The OpenMolcas Authors
           For the author list and the recommended citation,
                   consult the file CONTRIBUTORS.md

           *************************************************
           * pymolcas version py2.04                       *
           *   build 3b3f1139d1f9af0cd96dc01c0ce9d5c0      *
           *   (after the EMIL interpreter by V. Veryazov) *
           *************************************************

configuration info
------------------
C Compiler ID: Intel
C flags: -std=gnu99 -qopenmp
Fortran Compiler ID: Intel
Fortran flags: -fpp -i8 -r8 -heap-arrays -qopenmp
Definitions: _MOLCAS_;_I8_;_LINUX_;_MKL_;_FDE_
Parallel: OFF (GA=OFF)


   ----------------------------------------------------------------------------------------------------------
  |
  |           Project: PuO2_CH3SO2_SO2-m1-triplet.casscf.MB
  |    Submitted from: /home/vallet/John-methylsulfonyl/PuO2_CH3SO2_SO2-m1/triplet-geom/optg-freq-pbe0/SO-XMS
  |      Scratch area: /state/partition1/vallet/499088.phlam-s-sakura/PuO2_CH3SO2_SO2-m1-triplet.casscf.MB
  |   Save outputs to: /home/vallet/John-methylsulfonyl/PuO2_CH3SO2_SO2-m1/triplet-geom/optg-freq-pbe0/SO-XMS
  |            Molcas: /home/pcmt/OpenMolcas/OpenMolcas-20181005
  |
  | Scratch area is empty
  |
  |    MOLCAS_DRIVER = /home/pcmt/OpenMolcas/OpenMolcas-20181005/sbin/pymolcas
  |   MOLCAS_LICENSE = /home/pcmt/molcas/license
  |    MOLCAS_MOLDEN = ON
  |    MOLCAS_NPROCS = 1
  |    MOLCAS_SOURCE = /home/pcmt/OpenMolcas/OpenMolcas-20181005
  | MOLCAS_STRUCTURE = 0
  |
   ----------------------------------------------------------------------------------------------------------

++ ---------   Input file   ---------

&GATEWAY
   COORD=$HomeDir/PuO2_CH3SO2_SO2-m1-triplet.pbe0.optg-zaxis.xyz
   BASIS=ANO-RCC-MB
   Group=Nosym
   ANGM=0.0 0.0 0.0
   RICD

>>> COPY $Project.RunFile $HomeDir

&SEWARD

&RASSCF
   Spin=5
   Symmetry=1
   Nactel=4 0 0
   Inactive=90
   Ras2=5
   CIRoots=4 4 1

>>> COPY $Project.RasOrb $HomeDir/$Project.RasOrb_quintets

>>> COPY $Project.rasscf.molden $HomeDir/$Project.rasscf_quintets.molden

&RASSCF
   Spin=3
   Symmetry=1
   Nactel=4 0 0
   Inactive=90
   Ras2=5
   CIRoots=20 20 1

>>> COPY $Project.RasOrb $HomeDir/$Project.RasOrb_triplets

>>> COPY $Project.rasscf.molden $HomeDir/$Project.rasscf_triplets.molden

&RASSCF
   Spin=1
   Symmetry=1
   Nactel=4 0 0
   Inactive=90
   Ras2=5
   CIRoots=20 20 1

>>> COPY $Project.RasOrb $HomeDir/$Project.RasOrb_singlets

>>> COPY $Project.rasscf.molden $HomeDir/$Project.rasscf_singlets.molden

-- ----------------------------------

--- Start Module: gateway at Fri Nov 16 16:56:30 2018 ---
 
()()()()()()()()()()()()()()()()()()()()()()()()()()()()()()()()()()()()()()()()()()()()()()()()()()

                                              &GATEWAY

                                   only a single process is used
                       available to each process: 16 GB of memory, 8 threads
()()()()()()()()()()()()()()()()()()()()()()()()()()()()()()()()()()()()()()()()()()()()()()()()()()
 
 
++    Symmetry information:
      ---------------------
 
                    Character Table for C1 
 
                             E  
                    a        1  x, y, xy, Rz, z, xz, Ry, yz, Rx, I
--
 
 
++    Basis set information:
      ----------------------
 
 
      Basis set label: C.ANO-RCC...2S1P.
 
      Electronic valence basis set:
      ------------------
      Associated Effective Charge   6.000000 au
      Associated Actual Charge      6.000000 au
      Nuclear Model: Point charge
 
      Shell  nPrim  nBasis  Cartesian Spherical Contaminant
         s      14       2        X                  
         p       9       1        X                  
 
 
      Basis set label: S.ANO-RCC...3S2P.
 
      Electronic valence basis set:
      ------------------
      Associated Effective Charge  16.000000 au
      Associated Actual Charge     16.000000 au
      Nuclear Model: Point charge
 
      Shell  nPrim  nBasis  Cartesian Spherical Contaminant
         s      17       3        X                  
         p      12       2        X                  
 
 
      Basis set label: O.ANO-RCC...2S1P.
 
      Electronic valence basis set:
      ------------------
      Associated Effective Charge   8.000000 au
      Associated Actual Charge      8.000000 au
      Nuclear Model: Point charge
 
      Shell  nPrim  nBasis  Cartesian Spherical Contaminant
         s      14       2        X                  
         p       9       1        X                  
 
 
      Basis set label: PU.ANO-RCC...7S6P4D2F.
 
      Electronic valence basis set:
      ------------------
      Associated Effective Charge  94.000000 au
      Associated Actual Charge     94.000000 au
      Nuclear Model: Point charge
 
      Shell  nPrim  nBasis  Cartesian Spherical Contaminant
         s      26       7        X                  
         p      23       6        X                  
         d      17       4                 X         
         f      13       2                 X         
 
 
      Basis set label: O.ANO-RCC...2S1P.
 
      Electronic valence basis set:
      ------------------
      Associated Effective Charge   8.000000 au
      Associated Actual Charge      8.000000 au
      Nuclear Model: Point charge
 
      Shell  nPrim  nBasis  Cartesian Spherical Contaminant
         s      14       2        X                  
         p       9       1        X                  
 
 
      Basis set label: S.ANO-RCC...3S2P.
 
      Electronic valence basis set:
      ------------------
      Associated Effective Charge  16.000000 au
      Associated Actual Charge     16.000000 au
      Nuclear Model: Point charge
 
      Shell  nPrim  nBasis  Cartesian Spherical Contaminant
         s      17       3        X                  
         p      12       2        X                  
 
 
      Basis set label: O.ANO-RCC...2S1P.
 
      Electronic valence basis set:
      ------------------
      Associated Effective Charge   8.000000 au
      Associated Actual Charge      8.000000 au
      Nuclear Model: Point charge
 
      Shell  nPrim  nBasis  Cartesian Spherical Contaminant
         s      14       2        X                  
         p       9       1        X                  
 
 
      Basis set label: H.ANO-RCC...1S.
 
      Electronic valence basis set:
      ------------------
      Associated Effective Charge   1.000000 au
      Associated Actual Charge      1.000000 au
      Nuclear Model: Point charge
 
      Shell  nPrim  nBasis  Cartesian Spherical Contaminant
         s       8       1        X                  
--
 
 
++    Molecular structure info:
      -------------------------
 
                    ************************************************ 
                    **** Cartesian Coordinates / Bohr, Angstrom **** 
                    ************************************************ 
 
     Center  Label                x              y              z                     x              y              z
        1      C1               2.892812       5.781466      -3.772120              1.530810       3.059420      -1.996120
        2      S2               2.612452       5.217345      -0.398260              1.382450       2.760900      -0.210750
        3      O3              -0.229602       4.731043      -0.126990             -0.121500       2.503560      -0.067200
        4      PU4              0.000000       0.000000       0.000000              0.000000       0.000000       0.000000
        5      O5               0.209079      -4.797542       0.048774              0.110640      -2.538750       0.025810
        6      S6              -2.641195      -5.262717       0.124249             -1.397660      -2.784910       0.065750
        7      O7              -3.970333      -2.698831       0.044900             -2.101010      -1.428160       0.023760
        8      O8               3.927834       2.651513      -0.128199              2.078520       1.403120      -0.067840
        9      O9               0.000000       0.000000       3.299632              0.000000       0.000000       1.746090
       10      O10             -0.005178      -0.010488      -3.311178             -0.002740      -0.005550      -1.752200
       11      H11              4.891480       5.987503      -4.229774              2.588460       3.168450      -2.238300
       12      H12              2.072160       4.142828      -4.714356              1.096540       2.192290      -2.494730
       13      H13              1.858678       7.504764      -4.227487              0.983570       3.971350      -2.237090
 
                    *************************************** 
                    *    InterNuclear Distances / Bohr    * 
                    *************************************** 
 
               1 C1            2 S2            3 O3            4 PU4           5 O5            6 S6    
    1 C1       0.000000
    2 S2       3.432167        0.000000
    3 O3       4.913230        2.896091        0.000000
    4 PU4      7.484824        5.848436        4.738313        0.000000
    5 O5      11.563609       10.308928        9.540297        4.802344        0.000000
    6 S6      12.953027       11.734799       10.283683        5.889613        2.888970        0.000000
    7 O7      11.558021       10.305110        8.320195        4.800964        4.676761        2.889017
    8 O8       4.913862        2.895973        4.648518        4.740763        8.327597       10.288386
    9 O9       9.581408        6.907966        5.846128        3.299632        5.798983        6.689929
   10 O10      6.492884        6.532022        5.715902        3.311199        5.852441        6.807104
   11 H11      2.060722        4.524115        6.681094        8.812931       12.511916       14.222031
   12 H12      2.060683        4.480535        5.166047        6.609238       10.299937       11.579814
   13 H13      2.060715        4.523654        5.372944        8.811800       13.128378       14.219530
 
               7 O7            8 O8            9 O9           10 O10          11 H11          12 H12   
    7 O7       0.000000
    8 O8       9.541341        0.000000
    9 O9       5.800045        5.848796        0.000000
   10 O10      5.849180        5.717183        6.610820        0.000000
   11 H11     13.124671        5.374045       10.792068        7.797241        0.000000
   12 H12     10.294200        5.167241        9.256397        4.851214        3.403853        0.000000
   13 H13     12.503760        6.681289       10.790444        7.796960        3.391162        3.403708
 
              13 H13   
   13 H13      0.000000
 
                    ******************************************* 
                    *    InterNuclear Distances / Angstrom    * 
                    ******************************************* 
 
               1 C1            2 S2            3 O3            4 PU4           5 O5            6 S6    
    1 C1       0.000000
    2 S2       1.816224        0.000000
    3 O3       2.599969        1.532546        0.000000
    4 PU4      3.960799        3.094859        2.507407        0.000000
    5 O5       6.119199        5.455250        5.048508        2.541291        0.000000
    6 S6       6.854447        6.209788        5.441891        3.116649        1.528777        0.000000
    7 O7       6.116241        5.453230        4.402858        2.540561        2.474835        1.528802
    8 O8       2.600304        1.532483        2.459890        2.508704        4.406774        5.444380
    9 O9       5.070263        3.655538        3.093638        1.746090        3.068690        3.540158
   10 O10      3.435886        3.456597        3.024725        1.752211        3.096979        3.602164
   11 H11      1.090487        2.394059        3.535483        4.663602        6.621021        7.525975
   12 H12      1.090466        2.370997        2.733754        3.497458        5.450492        6.127774
   13 H13      1.090484        2.393815        2.843239        4.663004        6.947239        7.524651
 
               7 O7            8 O8            9 O9           10 O10          11 H11          12 H12   
    7 O7       0.000000
    8 O8       5.049060        0.000000
    9 O9       3.069251        3.095050        0.000000
   10 O10      3.095253        3.025403        3.498295        0.000000
   11 H11      6.945277        2.843822        5.710916        4.126122        0.000000
   12 H12      5.447456        2.734386        4.898274        2.567152        1.801241        0.000000
   13 H13      6.616705        3.535586        5.710057        4.125974        1.794526        1.801165
 
              13 H13   
   13 H13      0.000000
 
                    ************************************** 
                    *    Valence Bond Angles / Degree    * 
                    ************************************** 
                          Atom centers                 Phi
                     11 H11      1 C1      12 H12      111.36
                     11 H11      1 C1      13 H13      110.73
                     12 H12      1 C1      13 H13      111.35
                      3 O3       2 S2       8 O8       106.75
                      5 O5       6 S6       7 O7       108.08
--
 
 
            Nuclear Potential Energy           2305.86215958 au
 
--- Stop Module: gateway at Fri Nov 16 16:57:51 2018 /rc=_RC_ALL_IS_WELL_ ---
*** files: PuO2_CH3SO2_SO2-m1-triplet.casscf.MB.RICDLib xmldump
    saved to directory /home/vallet/John-methylsulfonyl/PuO2_CH3SO2_SO2-m1/triplet-geom/optg-freq-pbe0/SO-XMS
--- Module gateway spent 1 minute 20 seconds ---

>>> COPY PuO2_CH3SO2_SO2-m1-triplet.casscf.MB.RunFile /home/vallet/John-methylsulfonyl/PuO2_CH3SO2_SO2-m1/triplet-geom/optg-freq-pbe0/SO-XMS

--- Start Module: seward at Fri Nov 16 16:57:51 2018 ---
 
()()()()()()()()()()()()()()()()()()()()()()()()()()()()()()()()()()()()()()()()()()()()()()()()()()

                                              &SEWARD

                                   only a single process is used
                       available to each process: 16 GB of memory, 8 threads
()()()()()()()()()()()()()()()()()()()()()()()()()()()()()()()()()()()()()()()()()()()()()()()()()()
 
               SEWARD will generate:
                  Multipole Moment integrals up to order  2
                  Kinetic Energy integrals
                  Nuclear Attraction integrals (point charge)
                  One-Electron Hamiltonian integrals
                  Velocity integrals
                  Relativistic Douglas-Kroll-Hess integrals:
                    - Parametrization         : EXP
                    - DKH order of Hamiltonian: 2
                    - DKH order of Properties : 0
                         - multipole moment operators
                         - electric potential operators
                         - contact operators
                  Orbital angular momentum around ( 0.0000  0.0000  0.0000 )
                  Atomic mean-field integrals
                  RI decomposed two-electron repulsion integrals stored Cholesky style
                   - acCD auxiliary basis
                   - CD Threshold:   0.10E-03
 
                   Integrals are discarded if absolute value <: 0.10E-13
                   Integral cutoff threshold is set to       <: 0.10E-15
 
            Nuclear Potential Energy           2305.86215958 au
 
 
      Basis set specifications :
      Symmetry species         a  
      Basis functions          115
 
 
  Input file to MOLDEN was generated!
 
--- Stop Module: seward at Fri Nov 16 16:58:20 2018 /rc=_RC_ALL_IS_WELL_ ---
*** files: PuO2_CH3SO2_SO2-m1-triplet.casscf.MB.GssOrb PuO2_CH3SO2_SO2-m1-triplet.casscf.MB.guessorb.h5 PuO2_CH3SO2_SO2-m1-triplet.casscf.MB.guessorb.molden xmldump
    saved to directory /home/vallet/John-methylsulfonyl/PuO2_CH3SO2_SO2-m1/triplet-geom/optg-freq-pbe0/SO-XMS
--- Module seward spent 28 seconds ---

*** symbolic link created: INPORB -> PuO2_CH3SO2_SO2-m1-triplet.casscf.MB.GssOrb
--- Start Module: rasscf at Fri Nov 16 16:58:20 2018 ---
 
()()()()()()()()()()()()()()()()()()()()()()()()()()()()()()()()()()()()()()()()()()()()()()()()()()

                                              &RASSCF

                                   only a single process is used
                       available to each process: 16 GB of memory, 8 threads
()()()()()()()()()()()()()()()()()()()()()()()()()()()()()()()()()()()()()()()()()()()()()()()()()()
 
 
      Header of the ONEINT file:
      --------------------------
      
      Integrals generated by seward 4.2.0  , Fri Nov 16 16:57:52 2018
 
 
      OrdInt status: non-squared
 
 
      Cartesian coordinates in Angstrom:
      -----------------------------------------------------
      No.  Label        X            Y            Z        
      -----------------------------------------------------
       1   C1         1.53081000   3.05942000  -1.99612000
       2   S2         1.38245000   2.76090000  -0.21075000
       3   O3        -0.12150000   2.50356000  -0.06720000
       4   PU4        0.00000000   0.00000000   0.00000000
       5   O5         0.11064000  -2.53875000   0.02581000
       6   S6        -1.39766000  -2.78491000   0.06575000
       7   O7        -2.10101000  -1.42816000   0.02376000
       8   O8         2.07852000   1.40312000  -0.06784000
       9   O9         0.00000000   0.00000000   1.74609000
      10   O10       -0.00274000  -0.00555000  -1.75220000
      11   H11        2.58846000   3.16845000  -2.23830000
      12   H12        1.09654000   2.19229000  -2.49473000
      13   H13        0.98357000   3.97135000  -2.23709000
      -----------------------------------------------------
      Nuclear repulsion energy = 2305.86215958
 
++    Wave function specifications:
      -----------------------------
 
      Number of closed shell electrons         180
      Number of electrons in active shells       4
      Max number of holes in RAS1 space          0
      Max nr of electrons in RAS3 space          0
      Number of inactive orbitals               90
      Number of active orbitals                  5
      Number of secondary orbitals              20
      Spin quantum number                      2.0
      State symmetry                             1
--
 
++    Orbital specifications:
      -----------------------
 
      Symmetry species                           1
                                                 a
      Frozen orbitals                            0
      Inactive orbitals                         90
      Active orbitals                            5
      RAS1 orbitals                              0
      RAS2 orbitals                              5
      RAS3 orbitals                              0
      Secondary orbitals                        20
      Deleted orbitals                           0
      Number of basis functions                115
--
 
++    CI expansion specifications:
      ----------------------------
 
      Number of CSFs                             5
      Number of determinants                     5
      Number of root(s) required                 4
      Root chosen for geometry opt.              4
      CI roots used                              1     2     3     4
      weights                                0.250 0.250 0.250 0.250
      highest root included in the CI            4
      max. size of the explicit Hamiltonian      5
--
 
++    Optimization specifications:
      ----------------------------
 
      RASSCF algorithm: LK RI/DF
      Maximum number of macro iterations       200
      Maximum number of SX iterations          100
      Threshold for RASSCF energy            0.100E-07
      Threshold for max MO rotation          0.100E+00
      Threshold for max BLB element          0.100E-03
      Level shift parameter                  0.500E+00
      Make Quasi-Newton update
--
 
      Orbitals from runfile: guessorb orbitals
      The MO-coefficients are taken from guessorb on runfile
 
      Total molecular charge   -1.00
 
      ************************************************************************************************************************
      *                                                                                                                      *
      *                                            Wave function control section                                             *
      *                                                                                                                      *
      ************************************************************************************************************************
 
 
                                         RASSCF iterations: Energy and convergence statistics
                                         ----------------------------------------------------
 
      Iter CI   SX   CI       RASSCF       Energy    max ROT     max BLB   max BLB  Level Ln srch  Step   QN   Walltime
          iter iter root      energy       change     param      element    value   shift minimum  type update hh:mm:ss
 Nr of preliminary CI iterations:   1
      Total energies have been shifted. Add               -30000.00 au
        1   1  100    0  -819.79056528    0.00E+00   0.27E+00*  89  93 1 -0.97E+00*  2.52   0.00    SX    NO    0:00:06
        2   1  100    0  -821.66556697   -0.19E+01* -0.25E+00*  89  93 1 -0.72E+00*  1.92   0.00    SX    NO    0:00:03
        3   1  100    0  -822.85645906   -0.12E+01*  0.28E+00*  89  93 1 -0.42E+00*  1.40   0.00    SX    NO    0:00:03
        4   1  100    0  -823.61585021   -0.76E+00*  0.20E+00*  95  96 1  0.35E+00*  1.14   0.00    SX    NO    0:00:03
        5   1   34    0  -823.98953745   -0.37E+00*  0.15E+00*  95  96 1  0.23E+00*  1.03   2.33    LS   YES    0:00:02
        6   1   59    0  -824.14812183   -0.16E+00*  0.99E-01   95  96 1  0.12E+00*  0.97   1.96    LS   YES    0:00:02
        7   1   35    0  -824.19550499   -0.47E-01* -0.56E-01   65 115 1  0.62E-01*  0.95   1.48    QN   YES    0:00:02
        8   1   30    0  -824.23444332   -0.39E-01* -0.62E-01   90  98 1 -0.50E-01*  0.93   2.50    LS   YES    0:00:02
        9   1   11    0  -824.25888718   -0.24E-01* -0.58E-01   90  98 1 -0.57E-01*  0.91   1.75    QN   YES    0:00:02
       10   1   46    0  -824.29158687   -0.33E-01* -0.12E+00*  90  98 1 -0.65E-01*  0.86   2.50    QN   YES    0:00:02
       11   1   21    0  -824.33956618   -0.48E-01* -0.12E+00*  90  98 1 -0.60E-01*  0.76   1.71    QN   YES    0:00:02
       12   1  100    0  -824.37635329   -0.37E-01* -0.12E+00*  86 112 1 -0.55E-01*  0.66   1.70    QN   YES    0:00:03
       13   1   20    0  -824.41624703   -0.40E-01* -0.14E+00*  86 112 1 -0.68E-01*  0.60   2.32    QN   YES    0:00:02
       14   1   23    0  -824.46660735   -0.50E-01* -0.11E+00*  86 112 1 -0.67E-01*  0.55   1.98    QN   YES    0:00:02
       15   1   67    0  -824.50981712   -0.43E-01*  0.90E-01   86 112 1 -0.53E-01*  0.51   1.80    QN   YES    0:00:02
       16   1   13    0  -824.54467887   -0.35E-01*  0.12E+00*  90  95 1 -0.36E-01*  0.49   2.05    QN   YES    0:00:02
       17   1   71    0  -824.57517258   -0.30E-01*  0.18E+00*  90  95 1 -0.46E-01*  0.47   2.19    QN   YES    0:00:02
       18   1   29    0  -824.60536553   -0.30E-01*  0.22E+00*  90  95 1 -0.52E-01*  0.44   1.99    QN   YES    0:00:02
       19   1   67    0  -824.63378183   -0.28E-01*  0.19E+00*  86 112 1  0.47E-01*  0.42   1.66    QN   YES    0:00:02
       20   1   85    0  -824.66157753   -0.28E-01*  0.26E+00*  86 112 1  0.58E-01*  0.40   2.50    QN   YES    0:00:02
       21   1  100    0  -824.70724166   -0.46E-01*  0.28E+00*  86 112 1  0.70E-01*  0.35   2.06    QN   YES    0:00:03
       22   1   89    0  -824.74158171   -0.34E-01*  0.48E-01   86 112 1  0.72E-01*  0.32   0.97    QN   YES    0:00:02
       23   1  100    0  -824.77065085   -0.29E-01*  0.55E-01   95  97 1 -0.49E-01*  0.31   2.05    QN   YES    0:00:03
       24   1   19    0  -824.81290012   -0.42E-01*  0.46E-01   93  98 1  0.35E-01*  0.30   1.54    QN   YES    0:00:02
       25   1   48    0  -824.82951980   -0.17E-01*  0.54E-01   93  98 1  0.27E-01*  0.30   1.67    QN   YES    0:00:02
       26   1   11    0  -824.83750910   -0.80E-02*  0.55E-01   93  98 1  0.18E-01*  0.29   1.66    QN   YES    0:00:02
       27   1   10    0  -824.84138018   -0.39E-02*  0.39E-01   93  98 1  0.90E-02*  0.29   1.60    QN   YES    0:00:02
       28   1   10    0  -824.84317654   -0.18E-02*  0.46E-01   95  98 1 -0.53E-02*  0.29   1.57    QN   YES    0:00:02
       29   1   10    0  -824.84418246   -0.10E-02* -0.37E-01   95  98 1 -0.10E-01*  0.29   1.30    QN   YES    0:00:02
       30   1   10    0  -824.84511462   -0.93E-03* -0.52E-01   95  98 1 -0.98E-02*  0.29   1.56    QN   YES    0:00:02
       31   1   10    0  -824.84636501   -0.13E-02* -0.13E+00*  95  98 1 -0.91E-02*  0.29   2.50    QN   YES    0:00:02
       32   1    9    0  -824.84907982   -0.27E-02*  0.15E+00*  94  98 1  0.93E-02*  0.29   1.83    QN   YES    0:00:02
       33   1   11    0  -824.85156913   -0.25E-02* -0.13E+00*  94  98 1  0.11E-01*  0.29   1.55    QN   YES    0:00:02
       34   1   11    0  -824.85410817   -0.25E-02* -0.15E+00*  94  98 1  0.11E-01*  0.28   2.14    QN   YES    0:00:02
       35   1   15    0  -824.85788456   -0.38E-02*  0.16E+00*  94  98 1  0.11E-01*  0.28   2.15    QN   YES    0:00:02
       36   1   10    0  -824.86188988   -0.40E-02*  0.14E+00*  95  98 1  0.13E-01*  0.28   1.98    QN   YES    0:00:02
       37   1   14    0  -824.86538708   -0.35E-02*  0.12E+00*  95  98 1  0.13E-01*  0.28   1.95    QN   YES    0:00:02
       38   1    9    0  -824.86857196   -0.32E-02*  0.13E+00*  95  98 1  0.11E-01*  0.28   2.03    QN   YES    0:00:02
       39   1   12    0  -824.87177582   -0.32E-02* -0.12E+00*  90  93 1 -0.82E-02*  0.28   1.96    QN   YES    0:00:02
       40   1   10    0  -824.87478937   -0.30E-02*  0.91E-01   90  93 1 -0.96E-02*  0.28   1.84    QN   YES    0:00:02
       41   1   10    0  -824.87728384   -0.25E-02*  0.52E-01   90  93 1 -0.82E-02*  0.28   1.82    QN   YES    0:00:02
       42   1   10    0  -824.87904692   -0.18E-02*  0.38E-01   82  96 1  0.59E-02*  0.28   1.67    QN   YES    0:00:02
       43   1    9    0  -824.87989702   -0.85E-03*  0.31E-01   82  96 1  0.32E-02*  0.28   1.50    QN   YES    0:00:02
       44   1    8    0  -824.88022626   -0.33E-03*  0.40E-01   91  96 1  0.28E-02*  0.28   1.22    QN   YES    0:00:02
       45   1    8    0  -824.88042750   -0.20E-03* -0.98E-02   90  93 1  0.19E-02*  0.28   1.04    QN   YES    0:00:02
       46   1    8    0  -824.88056433   -0.14E-03* -0.11E-01   91  96 1  0.15E-02*  0.28   2.18    LS   YES    0:00:02
       47   1    8    0  -824.88062025   -0.56E-04* -0.89E-02   82  96 1 -0.16E-02*  0.28   1.04    QN   YES    0:00:02
       48   1    8    0  -824.88067516   -0.55E-04* -0.11E-01   77  96 1 -0.11E-02*  0.28   2.22    LS   YES    0:00:02
       49   1    8    0  -824.88069909   -0.24E-04* -0.53E-02   77  96 1 -0.12E-02*  0.28   1.04    QN   YES    0:00:02
       50   1    7    0  -824.88072156   -0.22E-04* -0.64E-02   77  96 1 -0.11E-02*  0.28   2.26    LS   YES    0:00:02
       51   1    7    0  -824.88073188   -0.10E-04*  0.17E-02   77  96 1 -0.94E-03*  0.28   1.05    QN   YES    0:00:02
       52   1    7    0  -824.88073858   -0.67E-05*  0.29E-02   90  97 1  0.34E-03*  0.28   1.89    QN   YES    0:00:02
       53   1    7    0  -824.88074376   -0.52E-05*  0.13E-02   90  96 1  0.23E-03*  0.28   1.17    QN   YES    0:00:02
       54   1    6    0  -824.88074504   -0.13E-05*  0.22E-02   77  96 1  0.27E-03*  0.28   1.89    QN   YES    0:00:02
       55   1    6    0  -824.88074637   -0.13E-05*  0.11E-02   77  96 1  0.18E-03*  0.28   1.41    QN   YES    0:00:02
       56   1    6    0  -824.88074691   -0.54E-06* -0.12E-02   79 107 1 -0.10E-03*  0.28   1.52    QN   YES    0:00:02
       57   1    6    0  -824.88074731   -0.40E-06* -0.65E-03   95  97 1 -0.65E-04   0.28   1.60    QN   YES    0:00:02
       58   1    6    0  -824.88074747   -0.16E-06* -0.67E-03   77  96 1 -0.55E-04   0.28   2.04    LS   YES    0:00:02
       59   1    6    0  -824.88074748   -0.87E-08   0.28E-03   77  96 1 -0.81E-04   0.28   0.55    QN   YES    0:00:02
      Convergence after 59 iterations
       60   1    6    0  -824.88074756   -0.75E-07*  0.28E-03   77  96 1 -0.41E-04   0.28   0.55    QN   YES    0:00:02
 
      ************************************************************************************************************************
                                                      Wave function printout:
                       occupation of active orbitals, and spin coupling of open shells (u,d: Spin up or down)
      ************************************************************************************************************************
 
      Note: transformation to natural orbitals
      has been made, which may change the order of the CSFs.
 
      printout of CI-coefficients larger than  0.05 for root  1
      energy=  -30824.904741
      conf/sym  11111     Coeff  Weight
             1  uuuu0  -0.14297 0.02044
             2  uuu0u   0.51973 0.27012
             4  u0uuu   0.72149 0.52054
             5  0uuuu   0.43462 0.18889
 
      printout of CI-coefficients larger than  0.05 for root  2
      energy=  -30824.896136
      conf/sym  11111     Coeff  Weight
             1  uuuu0   0.08916 0.00795
             2  uuu0u   0.52336 0.27390
             4  u0uuu  -0.67108 0.45034
             5  0uuuu   0.51750 0.26780
 
      printout of CI-coefficients larger than  0.05 for root  3
      energy=  -30824.866084
      conf/sym  11111     Coeff  Weight
             1  uuuu0   0.96601 0.93318
             2  uuu0u   0.16166 0.02613
             4  u0uuu   0.15367 0.02361
             5  0uuuu  -0.13064 0.01707
 
      printout of CI-coefficients larger than  0.05 for root  4
      energy=  -30824.856029
      conf/sym  11111     Coeff  Weight
             1  uuuu0   0.19603 0.03843
             2  uuu0u  -0.65562 0.42984
             4  u0uuu   0.07415 0.00550
             5  0uuuu   0.72542 0.52624
 
      Natural orbitals and occupation numbers for root  1
      sym 1:   1.000000   0.000000   1.000000   1.000000   1.000000
 
      Natural orbitals and occupation numbers for root  2
      sym 1:   1.000000   0.000000   1.000000   1.000000   1.000000
 
      Natural orbitals and occupation numbers for root  3
      sym 1:   1.000000   1.000000   1.000000   1.000000   0.000000
 
      Natural orbitals and occupation numbers for root  4
      sym 1:   0.000000   1.000000   1.000000   1.000000   1.000000
 
      ************************************************************************************************************************
      *                                                                                                                      *
      *                                                    Final results                                                     *
      *                                                                                                                      *
      ************************************************************************************************************************
 
 
++    Wave function specifications:
      -----------------------------
 
      Number of closed shell electrons         180
      Number of electrons in active shells       4
      Max number of holes in RAS1 space          0
      Max nr of electrons in RAS3 space          0
      Number of inactive orbitals               90
      Number of active orbitals                  5
      Number of secondary orbitals              20
      Spin quantum number                      2.0
      State symmetry                             1
--
 
++    Orbital specifications:
      -----------------------
 
      Symmetry species                           1
                                                 a
      Frozen orbitals                            0
      Inactive orbitals                         90
      Active orbitals                            5
      RAS1 orbitals                              0
      RAS2 orbitals                              5
      RAS3 orbitals                              0
      Secondary orbitals                        20
      Deleted orbitals                           0
      Number of basis functions                115
--
 
++    CI expansion specifications:
      ----------------------------
 
      Number of CSFs                             5
      Number of determinants                     5
      Number of root(s) required                 4
      CI roots used                              1     2     3     4
      weights                                0.250 0.250 0.250 0.250
      highest root included in the CI            4
      Root passed to geometry opt.               4
--
 
++    Final optimization conditions:
      ------------------------------
 
      Average CI energy                          -30824.88074754
      RASSCF energy for state  4                 -30824.85602858
      Super-CI energy                                -0.00000004
      RASSCF energy change                           -0.00000008
      Max change in MO coefficients              -0.277E-03
      Max non-diagonal density matrix element     0.280E-03
      Maximum BLB matrix element                 -0.408E-04
      (orbital pair  77,  96 in symmetry   1)
      Norm of electronic gradient            0.564E-01
--
 
 
      Final state energy(ies):
      ------------------------
 
::    RASSCF root number  1 Total energy: -30824.90474099
::    RASSCF root number  2 Total energy: -30824.89613648
::    RASSCF root number  3 Total energy: -30824.86608411
::    RASSCF root number  4 Total energy: -30824.85602858
 
++    Molecular orbitals:
      -------------------
 
      Pseudonatural active orbitals and approximate occupation numbers
 
 
 
 
      Molecular orbitals for symmetry species 1: a  
 
 
      Orbital                1         2         3         4         5         6         7         8         9        10
      Energy        -4488.4738 -854.2075 -711.9176 -711.9158 -711.9155 -220.5738 -180.5491 -180.5486 -180.5476 -143.8103
      Occ. No.          2.0000    2.0000    2.0000    2.0000    2.0000    2.0000    2.0000    2.0000    2.0000    2.0000
 
    1 C1     1s        -0.0000   -0.0000    0.0000   -0.0000   -0.0000   -0.0000    0.0000   -0.0000    0.0000    0.0000
    2 C1     2s        -0.0000   -0.0000    0.0000    0.0000    0.0000   -0.0000    0.0000    0.0000   -0.0000    0.0000
    3 C1     2px        0.0000    0.0000    0.0000   -0.0000   -0.0000    0.0000    0.0000   -0.0000    0.0000    0.0000
    4 C1     2py        0.0000    0.0000    0.0000   -0.0000    0.0000    0.0000    0.0000   -0.0000   -0.0000    0.0000
    5 C1     2pz       -0.0000   -0.0000   -0.0000    0.0000    0.0000   -0.0000   -0.0000    0.0000   -0.0000   -0.0000
    6 S2     1s        -0.0000   -0.0000   -0.0000    0.0000    0.0000   -0.0000    0.0000    0.0000   -0.0000   -0.0000
    7 S2     2s        -0.0000   -0.0000   -0.0000    0.0000    0.0000   -0.0000    0.0000    0.0000   -0.0000   -0.0000
    8 S2     3s        -0.0000   -0.0000    0.0000    0.0000    0.0000   -0.0000    0.0000    0.0000   -0.0000   -0.0000
    9 S2     2px       -0.0000   -0.0000    0.0000   -0.0000   -0.0000   -0.0000   -0.0000   -0.0000    0.0000    0.0000
   10 S2     3px       -0.0000   -0.0000    0.0000   -0.0000    0.0000   -0.0000   -0.0000   -0.0000   -0.0000    0.0000
   11 S2     2py       -0.0000   -0.0000    0.0000   -0.0000    0.0000   -0.0000   -0.0000   -0.0000   -0.0000    0.0000
   12 S2     3py       -0.0000   -0.0000    0.0000   -0.0000   -0.0000   -0.0000   -0.0000   -0.0000    0.0000    0.0000
   13 S2     2pz       -0.0000   -0.0000    0.0000    0.0000    0.0000   -0.0000    0.0000    0.0000   -0.0000    0.0000
   14 S2     3pz       -0.0000   -0.0000    0.0000    0.0000   -0.0000   -0.0000    0.0000   -0.0000    0.0000    0.0000
   15 O3     1s         0.0000    0.0000   -0.0000    0.0000    0.0000    0.0000    0.0000    0.0000   -0.0000   -0.0000
   16 O3     2s         0.0000    0.0000    0.0000    0.0000    0.0000    0.0000    0.0000    0.0000   -0.0000   -0.0000
   17 O3     2px        0.0000    0.0000    0.0000   -0.0000   -0.0000    0.0000   -0.0000   -0.0000    0.0000    0.0000
   18 O3     2py       -0.0000   -0.0000   -0.0000    0.0000    0.0000   -0.0000    0.0000    0.0000   -0.0000    0.0000
   19 O3     2pz        0.0000    0.0000    0.0000    0.0000   -0.0000    0.0000    0.0000    0.0000    0.0000    0.0000
   20 PU4    1s         1.0000   -0.0000   -0.0000    0.0000    0.0000    0.0000    0.0000   -0.0000    0.0000   -0.0000
   21 PU4    2s         0.0000    1.0000   -0.0000   -0.0000   -0.0000   -0.0000   -0.0000   -0.0000   -0.0000   -0.0000
   22 PU4    3s        -0.0000    0.0000    0.0000   -0.0000   -0.0000    1.0000   -0.0000   -0.0000   -0.0000   -0.0000
   23 PU4    4s         0.0000   -0.0000   -0.0000    0.0000    0.0000   -0.0000    0.0000   -0.0000    0.0000    0.0000
   24 PU4    5s        -0.0000    0.0000    0.0000   -0.0000   -0.0000   -0.0000   -0.0000    0.0000   -0.0000   -0.0000
   25 PU4    6s         0.0000   -0.0000   -0.0000    0.0000    0.0000    0.0000    0.0000   -0.0000    0.0000    0.0000
   26 PU4    7s        -0.0000    0.0000   -0.0000    0.0000    0.0000   -0.0000   -0.0000    0.0000   -0.0000    0.0000
   27 PU4    2px       -0.0000    0.0000    0.0034    0.4491   -0.8935    0.0000   -0.0000   -0.0000   -0.0000   -0.0000
   28 PU4    3px        0.0000    0.0000    0.0000    0.0000   -0.0000    0.0000    0.0296    0.4480    0.8935   -0.0000
   29 PU4    4px       -0.0000    0.0000   -0.0000   -0.0000    0.0000   -0.0000   -0.0000   -0.0000   -0.0000    0.0000
   30 PU4    5px        0.0000   -0.0000    0.0000    0.0000   -0.0000    0.0000   -0.0000   -0.0000   -0.0000   -0.0000
   31 PU4    6px       -0.0000   -0.0000   -0.0000   -0.0000    0.0000   -0.0000   -0.0000   -0.0000   -0.0000    0.0000
   32 PU4    7px        0.0000    0.0000   -0.0000   -0.0000   -0.0000    0.0000   -0.0000    0.0000    0.0000    0.0000
   33 PU4    2py       -0.0000    0.0000    0.0070    0.8934    0.4491    0.0000   -0.0000   -0.0000    0.0000   -0.0000
   34 PU4    3py        0.0000    0.0000    0.0000    0.0000    0.0000    0.0000    0.0611    0.8914   -0.4490   -0.0000
   35 PU4    4py       -0.0000    0.0000   -0.0000   -0.0000   -0.0000   -0.0000   -0.0000   -0.0000    0.0000    0.0000
   36 PU4    5py        0.0000   -0.0000    0.0000    0.0000    0.0000    0.0000   -0.0000   -0.0000    0.0000   -0.0000
   37 PU4    6py       -0.0000   -0.0000   -0.0000   -0.0000   -0.0000   -0.0000   -0.0000   -0.0000    0.0000    0.0000
   38 PU4    7py        0.0000    0.0000   -0.0000   -0.0000    0.0000    0.0000   -0.0000    0.0000   -0.0000    0.0000
   39 PU4    2pz        0.0000    0.0000    1.0000   -0.0078   -0.0002   -0.0000   -0.0000    0.0000   -0.0000   -0.0000
   40 PU4    3pz       -0.0000    0.0000    0.0000   -0.0000   -0.0000    0.0000    0.9977   -0.0679    0.0010   -0.0000
   41 PU4    4pz        0.0000   -0.0000   -0.0000    0.0000    0.0000    0.0000   -0.0000    0.0000   -0.0000   -0.0000
   42 PU4    5pz       -0.0000    0.0000    0.0000   -0.0000   -0.0000   -0.0000   -0.0000    0.0000   -0.0000    0.0000
   43 PU4    6pz        0.0000   -0.0000   -0.0000    0.0000    0.0000    0.0000    0.0000   -0.0000    0.0000   -0.0000
   44 PU4    7pz       -0.0000   -0.0000    0.0000    0.0000   -0.0000   -0.0000    0.0000   -0.0000    0.0000   -0.0000
   45 PU4    3d2-      -0.0000    0.0000   -0.0000    0.0000   -0.0000    0.0000   -0.0000    0.0000    0.0000    0.0126
   46 PU4    4d2-       0.0000   -0.0000   -0.0000   -0.0000    0.0000    0.0000   -0.0000    0.0000    0.0000   -0.0000
   47 PU4    5d2-      -0.0000    0.0000    0.0000    0.0000   -0.0000   -0.0000   -0.0000   -0.0000   -0.0000    0.0000
   48 PU4    6d2-      -0.0000   -0.0000   -0.0000    0.0000   -0.0000   -0.0000   -0.0000    0.0000    0.0000    0.0000
   49 PU4    3d1-       0.0000    0.0000    0.0000    0.0000    0.0000    0.0000    0.0000    0.0000   -0.0000    0.8933
   50 PU4    4d1-      -0.0000   -0.0000   -0.0000   -0.0000   -0.0000    0.0000    0.0000    0.0000   -0.0000   -0.0000
   51 PU4    5d1-       0.0000    0.0000    0.0000    0.0000    0.0000   -0.0000   -0.0000   -0.0000    0.0000    0.0000
   52 PU4    6d1-       0.0000   -0.0000   -0.0000    0.0000   -0.0000    0.0000    0.0000    0.0000   -0.0000   -0.0000
   53 PU4    3d0        0.0000    0.0000    0.0000   -0.0000   -0.0000    0.0000    0.0000   -0.0000   -0.0000    0.0037
   54 PU4    4d0       -0.0000   -0.0000   -0.0000    0.0000    0.0000    0.0000    0.0000   -0.0000    0.0000   -0.0000
   55 PU4    5d0        0.0000    0.0000    0.0000   -0.0000   -0.0000   -0.0000   -0.0000    0.0000   -0.0000    0.0000
   56 PU4    6d0        0.0000   -0.0000   -0.0000   -0.0000   -0.0000    0.0000    0.0000   -0.0000    0.0000    0.0000
   57 PU4    3d1+       0.0000    0.0000    0.0000    0.0000   -0.0000    0.0000    0.0000    0.0000    0.0000    0.4491
   58 PU4    4d1+      -0.0000   -0.0000   -0.0000   -0.0000    0.0000    0.0000    0.0000    0.0000    0.0000   -0.0000
   59 PU4    5d1+       0.0000    0.0000    0.0000    0.0000   -0.0000   -0.0000   -0.0000   -0.0000   -0.0000    0.0000
   60 PU4    6d1+       0.0000   -0.0000   -0.0000    0.0000    0.0000    0.0000    0.0000    0.0000    0.0000   -0.0000
   61 PU4    3d2+       0.0000   -0.0000    0.0000   -0.0000   -0.0000   -0.0000    0.0000   -0.0000    0.0000   -0.0098
   62 PU4    4d2+      -0.0000    0.0000    0.0000    0.0000    0.0000   -0.0000    0.0000   -0.0000    0.0000    0.0000
   63 PU4    5d2+       0.0000   -0.0000   -0.0000   -0.0000   -0.0000    0.0000    0.0000    0.0000   -0.0000   -0.0000
   64 PU4    6d2+       0.0000    0.0000    0.0000   -0.0000   -0.0000    0.0000    0.0000   -0.0000    0.0000   -0.0000
   65 PU4    4f3-       0.0000   -0.0000   -0.0000   -0.0000   -0.0000   -0.0000   -0.0000   -0.0000    0.0000    0.0000
   66 PU4    5f3-       0.0000    0.0000    0.0000    0.0000    0.0000    0.0000    0.0000    0.0000   -0.0000   -0.0000
   67 PU4    4f2-       0.0000   -0.0000    0.0000    0.0000   -0.0000   -0.0000    0.0000    0.0000    0.0000    0.0000
   68 PU4    5f2-       0.0000    0.0000   -0.0000    0.0000    0.0000    0.0000   -0.0000    0.0000   -0.0000   -0.0000
   69 PU4    4f1-      -0.0000   -0.0000    0.0000    0.0000    0.0000    0.0000    0.0000    0.0000   -0.0000    0.0000
   70 PU4    5f1-       0.0000    0.0000   -0.0000   -0.0000   -0.0000    0.0000   -0.0000   -0.0000    0.0000   -0.0000
   71 PU4    4f0       -0.0000    0.0000    0.0000   -0.0000   -0.0000    0.0000   -0.0000    0.0000    0.0000   -0.0000
   72 PU4    5f0       -0.0000   -0.0000    0.0000    0.0000    0.0000   -0.0000    0.0000   -0.0000   -0.0000    0.0000
   73 PU4    4f1+      -0.0000   -0.0000    0.0000    0.0000   -0.0000    0.0000    0.0000    0.0000    0.0000    0.0000
   74 PU4    5f1+       0.0000    0.0000    0.0000   -0.0000    0.0000    0.0000   -0.0000   -0.0000   -0.0000   -0.0000
   75 PU4    4f2+      -0.0000    0.0000   -0.0000   -0.0000   -0.0000    0.0000   -0.0000   -0.0000    0.0000   -0.0000
   76 PU4    5f2+       0.0000   -0.0000    0.0000   -0.0000    0.0000   -0.0000    0.0000    0.0000   -0.0000    0.0000
   77 PU4    4f3+       0.0000   -0.0000   -0.0000   -0.0000    0.0000   -0.0000   -0.0000   -0.0000   -0.0000    0.0000
   78 PU4    5f3+      -0.0000   -0.0000    0.0000    0.0000   -0.0000   -0.0000    0.0000    0.0000    0.0000   -0.0000
   79 O5     1s         0.0000    0.0000   -0.0000   -0.0000   -0.0000    0.0000   -0.0000   -0.0000    0.0000    0.0000
   80 O5     2s         0.0000    0.0000   -0.0000   -0.0000   -0.0000    0.0000   -0.0000   -0.0000    0.0000    0.0000
   81 O5     2px       -0.0000   -0.0000    0.0000   -0.0000   -0.0000   -0.0000   -0.0000   -0.0000    0.0000   -0.0000
   82 O5     2py        0.0000    0.0000   -0.0000    0.0000    0.0000    0.0000    0.0000    0.0000   -0.0000    0.0000
   83 O5     2pz       -0.0000   -0.0000    0.0000    0.0000   -0.0000   -0.0000    0.0000   -0.0000    0.0000   -0.0000
   84 S6     1s        -0.0000   -0.0000    0.0000   -0.0000   -0.0000   -0.0000   -0.0000   -0.0000    0.0000   -0.0000
   85 S6     2s        -0.0000   -0.0000    0.0000   -0.0000   -0.0000   -0.0000   -0.0000   -0.0000    0.0000   -0.0000
   86 S6     3s        -0.0000   -0.0000   -0.0000   -0.0000   -0.0000   -0.0000   -0.0000   -0.0000    0.0000   -0.0000
   87 S6     2px        0.0000   -0.0000    0.0000   -0.0000   -0.0000    0.0000   -0.0000   -0.0000    0.0000   -0.0000
   88 S6     3px        0.0000    0.0000    0.0000   -0.0000    0.0000    0.0000   -0.0000   -0.0000   -0.0000   -0.0000
   89 S6     2py        0.0000   -0.0000    0.0000   -0.0000    0.0000    0.0000   -0.0000   -0.0000   -0.0000   -0.0000
   90 S6     3py        0.0000    0.0000    0.0000   -0.0000   -0.0000    0.0000   -0.0000   -0.0000    0.0000   -0.0000
   91 S6     2pz       -0.0000    0.0000    0.0000    0.0000    0.0000   -0.0000    0.0000    0.0000    0.0000   -0.0000
   92 S6     3pz       -0.0000    0.0000   -0.0000    0.0000    0.0000   -0.0000    0.0000    0.0000    0.0000   -0.0000
   93 O7     1s         0.0000    0.0000   -0.0000   -0.0000    0.0000    0.0000   -0.0000   -0.0000   -0.0000    0.0000
   94 O7     2s         0.0000    0.0000   -0.0000   -0.0000    0.0000    0.0000   -0.0000   -0.0000   -0.0000    0.0000
   95 O7     2px        0.0000    0.0000   -0.0000    0.0000   -0.0000    0.0000    0.0000    0.0000    0.0000    0.0000
   96 O7     2py        0.0000    0.0000   -0.0000    0.0000   -0.0000    0.0000    0.0000    0.0000    0.0000   -0.0000
   97 O7     2pz       -0.0000   -0.0000    0.0000    0.0000    0.0000   -0.0000    0.0000    0.0000   -0.0000   -0.0000
   98 O8     1s         0.0000    0.0000   -0.0000    0.0000   -0.0000    0.0000    0.0000    0.0000    0.0000   -0.0000
   99 O8     2s         0.0000    0.0000    0.0000    0.0000   -0.0000    0.0000    0.0000    0.0000    0.0000   -0.0000
  100 O8     2px       -0.0000   -0.0000   -0.0000    0.0000   -0.0000   -0.0000    0.0000    0.0000    0.0000    0.0000
  101 O8     2py       -0.0000   -0.0000   -0.0000    0.0000   -0.0000   -0.0000   -0.0000    0.0000    0.0000    0.0000
  102 O8     2pz        0.0000    0.0000    0.0000    0.0000    0.0000    0.0000    0.0000    0.0000   -0.0000    0.0000
  103 O9     1s         0.0000    0.0000   -0.0000    0.0000    0.0000    0.0000   -0.0000    0.0000   -0.0000   -0.0000
  104 O9     2s        -0.0000    0.0000   -0.0000   -0.0000    0.0000   -0.0000   -0.0000    0.0000   -0.0000   -0.0000
  105 O9     2px       -0.0000   -0.0000    0.0000   -0.0000    0.0000   -0.0000   -0.0000   -0.0000   -0.0000    0.0000
  106 O9     2py       -0.0000   -0.0000    0.0000   -0.0000   -0.0000   -0.0000   -0.0000   -0.0000    0.0000    0.0000
  107 O9     2pz        0.0000    0.0000    0.0000   -0.0000   -0.0000    0.0000    0.0000   -0.0000   -0.0000    0.0000
  108 O10    1s         0.0000    0.0000    0.0000    0.0000   -0.0000    0.0000    0.0000   -0.0000    0.0000   -0.0000
  109 O10    2s        -0.0000    0.0000    0.0000    0.0000   -0.0000   -0.0000    0.0000   -0.0000    0.0000   -0.0000
  110 O10    2px        0.0000    0.0000    0.0000   -0.0000    0.0000    0.0000    0.0000   -0.0000   -0.0000   -0.0000
  111 O10    2py        0.0000    0.0000    0.0000   -0.0000   -0.0000    0.0000    0.0000   -0.0000    0.0000   -0.0000
  112 O10    2pz       -0.0000   -0.0000    0.0000    0.0000    0.0000   -0.0000    0.0000    0.0000   -0.0000   -0.0000
  113 H11    1s         0.0000    0.0000    0.0000   -0.0000    0.0000    0.0000    0.0000   -0.0000   -0.0000    0.0000
  114 H12    1s        -0.0000   -0.0000   -0.0000    0.0000    0.0000   -0.0000   -0.0000    0.0000   -0.0000   -0.0000
  115 H13    1s         0.0000    0.0000    0.0000   -0.0000   -0.0000    0.0000    0.0000   -0.0000    0.0000    0.0000
 
 
      Orbital               11        12        13        14        15        16        17        18        19        20
      Energy         -143.8098 -143.8097 -143.8091 -143.8087  -92.4007  -92.3335  -58.7231  -45.3802  -45.3762  -45.3745
      Occ. No.          2.0000    2.0000    2.0000    2.0000    2.0000    2.0000    2.0000    2.0000    2.0000    2.0000
 
    1 C1     1s        -0.0000    0.0000   -0.0000    0.0000   -0.0000   -0.0000   -0.0000    0.0000   -0.0000    0.0000
    2 C1     2s        -0.0000    0.0000   -0.0000    0.0000    0.0000   -0.0000   -0.0000    0.0000   -0.0000    0.0000
    3 C1     2px       -0.0000   -0.0000   -0.0000   -0.0000   -0.0000    0.0000    0.0000    0.0000   -0.0000    0.0000
    4 C1     2py        0.0000   -0.0000   -0.0000    0.0000   -0.0000    0.0000    0.0000    0.0000   -0.0000   -0.0000
    5 C1     2pz        0.0000    0.0000    0.0000   -0.0000    0.0000   -0.0000   -0.0000   -0.0000    0.0000   -0.0000
    6 S2     1s         0.0000    0.0000    0.0000   -0.0000    1.0000    0.0000   -0.0000   -0.0000    0.0000   -0.0000
    7 S2     2s         0.0000   -0.0000    0.0000   -0.0000   -0.0000   -0.0000   -0.0000   -0.0000    0.0000   -0.0000
    8 S2     3s         0.0000    0.0000    0.0000   -0.0000   -0.0004   -0.0000   -0.0000    0.0000    0.0000   -0.0000
    9 S2     2px        0.0000    0.0000   -0.0000    0.0000   -0.0000    0.0000   -0.0000    0.0000   -0.0000    0.0000
   10 S2     3px       -0.0000    0.0000   -0.0000    0.0000    0.0000    0.0000   -0.0000    0.0000   -0.0000    0.0000
   11 S2     2py       -0.0000    0.0000   -0.0000   -0.0000   -0.0001    0.0000   -0.0000    0.0000   -0.0000   -0.0000
   12 S2     3py        0.0000    0.0000   -0.0000   -0.0000    0.0000    0.0000   -0.0000    0.0000   -0.0000   -0.0000
   13 S2     2pz       -0.0000    0.0000    0.0000   -0.0000   -0.0001   -0.0000   -0.0000    0.0000    0.0000   -0.0000
   14 S2     3pz       -0.0000    0.0000    0.0000    0.0000    0.0000   -0.0000   -0.0000    0.0000    0.0000   -0.0000
   15 O3     1s         0.0000   -0.0000    0.0000   -0.0000    0.0000   -0.0000    0.0000   -0.0000    0.0000   -0.0000
   16 O3     2s         0.0000    0.0000    0.0000   -0.0000    0.0000   -0.0000    0.0000   -0.0000    0.0000   -0.0000
   17 O3     2px       -0.0000   -0.0000    0.0000    0.0000    0.0000    0.0000    0.0000    0.0000   -0.0000    0.0000
   18 O3     2py       -0.0000   -0.0000   -0.0000    0.0000   -0.0000    0.0000   -0.0000   -0.0000    0.0000   -0.0000
   19 O3     2pz       -0.0000   -0.0000    0.0000   -0.0000   -0.0000   -0.0000    0.0000    0.0000    0.0000    0.0000
   20 PU4    1s         0.0000   -0.0000   -0.0000   -0.0000   -0.0000   -0.0000   -0.0000   -0.0000    0.0000   -0.0000
   21 PU4    2s         0.0000   -0.0000   -0.0000   -0.0000   -0.0000   -0.0000    0.0000    0.0000   -0.0000    0.0000
   22 PU4    3s         0.0000   -0.0000   -0.0000   -0.0000   -0.0000   -0.0000    0.0000   -0.0000    0.0000   -0.0000
   23 PU4    4s        -0.0000    0.0000    0.0000    0.0000   -0.0000   -0.0000    1.0000   -0.0000   -0.0000   -0.0000
   24 PU4    5s         0.0000   -0.0000   -0.0000   -0.0000   -0.0000   -0.0000   -0.0001    0.0000   -0.0000    0.0000
   25 PU4    6s        -0.0000    0.0000    0.0000    0.0000   -0.0000   -0.0000    0.0000   -0.0000   -0.0000   -0.0000
   26 PU4    7s         0.0000   -0.0000   -0.0000   -0.0000   -0.0000   -0.0000   -0.0000    0.0000   -0.0000    0.0000
   27 PU4    2px       -0.0000    0.0000   -0.0000   -0.0000   -0.0000    0.0000   -0.0000    0.0000    0.0000    0.0000
   28 PU4    3px       -0.0000    0.0000   -0.0000   -0.0000   -0.0000    0.0000    0.0000    0.0000    0.0000    0.0000
   29 PU4    4px        0.0000   -0.0000    0.0000    0.0000   -0.0000    0.0000    0.0000    0.0086    0.4489    0.8935
   30 PU4    5px       -0.0000    0.0000   -0.0000   -0.0000   -0.0000    0.0000   -0.0000   -0.0000   -0.0001   -0.0001
   31 PU4    6px       -0.0000   -0.0000    0.0000    0.0000   -0.0000    0.0000   -0.0000    0.0000    0.0000    0.0000
   32 PU4    7px        0.0000    0.0000   -0.0000   -0.0000   -0.0000    0.0000   -0.0000   -0.0000   -0.0000   -0.0000
   33 PU4    2py        0.0000    0.0000   -0.0000    0.0000   -0.0000    0.0000   -0.0000    0.0000    0.0000   -0.0000
   34 PU4    3py        0.0000    0.0000   -0.0000    0.0000   -0.0000    0.0000    0.0000    0.0000    0.0000   -0.0000
   35 PU4    4py       -0.0000   -0.0000    0.0000   -0.0000   -0.0000    0.0000    0.0000    0.0183    0.8934   -0.4490
   36 PU4    5py        0.0000    0.0000   -0.0000    0.0000   -0.0000    0.0000   -0.0000   -0.0000   -0.0001    0.0001
   37 PU4    6py        0.0000   -0.0000    0.0000   -0.0000   -0.0000    0.0000   -0.0000    0.0000    0.0000   -0.0000
   38 PU4    7py        0.0000    0.0000   -0.0000    0.0000   -0.0000    0.0000   -0.0000   -0.0000   -0.0001    0.0000
   39 PU4    2pz        0.0000   -0.0000   -0.0000    0.0000    0.0000   -0.0000    0.0000    0.0000   -0.0000    0.0000
   40 PU4    3pz       -0.0000   -0.0000   -0.0000   -0.0000    0.0000   -0.0000   -0.0000    0.0000   -0.0000    0.0000
   41 PU4    4pz        0.0000    0.0000    0.0000   -0.0000    0.0000   -0.0000    0.0000    0.9998   -0.0203    0.0005
   42 PU4    5pz       -0.0000    0.0000   -0.0000    0.0000    0.0000   -0.0000   -0.0000    0.0001    0.0000    0.0000
   43 PU4    6pz        0.0000   -0.0000    0.0000   -0.0000    0.0000   -0.0000    0.0000    0.0000   -0.0000    0.0000
   44 PU4    7pz        0.0000   -0.0000    0.0000    0.0000   -0.0000   -0.0000   -0.0000   -0.0000    0.0000   -0.0000
   45 PU4    3d2-       0.0155   -0.1065    0.7935    0.5989   -0.0000   -0.0000   -0.0000    0.0000   -0.0000   -0.0000
   46 PU4    4d2-      -0.0000    0.0000   -0.0000   -0.0000   -0.0000   -0.0000    0.0000   -0.0000    0.0000    0.0000
   47 PU4    5d2-       0.0000   -0.0000    0.0000    0.0000   -0.0000   -0.0000    0.0000   -0.0000    0.0000    0.0000
   48 PU4    6d2-      -0.0000    0.0000   -0.0000   -0.0000   -0.0000   -0.0000   -0.0000    0.0000   -0.0000    0.0000
   49 PU4    3d1-      -0.4491   -0.0026   -0.0141    0.0110    0.0000    0.0000   -0.0000    0.0000   -0.0000    0.0000
   50 PU4    4d1-       0.0000    0.0000    0.0000   -0.0000    0.0000    0.0000    0.0000    0.0000    0.0000   -0.0000
   51 PU4    5d1-      -0.0000   -0.0000   -0.0000    0.0000    0.0000    0.0000    0.0000   -0.0000   -0.0000    0.0000
   52 PU4    6d1-       0.0000    0.0000    0.0000   -0.0000   -0.0000    0.0000    0.0000   -0.0000    0.0000   -0.0000
   53 PU4    3d0       -0.0026    0.9911    0.1328    0.0003    0.0000    0.0000   -0.0000   -0.0000    0.0000   -0.0000
   54 PU4    4d0        0.0000   -0.0000   -0.0000   -0.0000    0.0000    0.0000    0.0001    0.0000   -0.0000   -0.0000
   55 PU4    5d0       -0.0000    0.0000    0.0000    0.0000    0.0000    0.0000    0.0001   -0.0000   -0.0000    0.0000
   56 PU4    6d0       -0.0000    0.0000    0.0000    0.0000    0.0000    0.0000    0.0000    0.0000   -0.0000    0.0000
   57 PU4    3d1+       0.8932    0.0018   -0.0083   -0.0212    0.0000    0.0000   -0.0000   -0.0000   -0.0000   -0.0000
   58 PU4    4d1+      -0.0000   -0.0000    0.0000    0.0000    0.0000    0.0000    0.0000    0.0000    0.0000    0.0000
   59 PU4    5d1+       0.0000    0.0000   -0.0000   -0.0000    0.0000    0.0000    0.0000   -0.0000   -0.0000   -0.0000
   60 PU4    6d1+      -0.0000    0.0000    0.0000    0.0000   -0.0000    0.0000    0.0000   -0.0000    0.0000    0.0000
   61 PU4    3d2+       0.0183    0.0794   -0.5937    0.8005    0.0000    0.0000    0.0000   -0.0000    0.0000   -0.0000
   62 PU4    4d2+      -0.0000   -0.0000    0.0000   -0.0000    0.0000    0.0000   -0.0000    0.0000   -0.0000    0.0000
   63 PU4    5d2+       0.0000    0.0000   -0.0000    0.0000    0.0000    0.0000   -0.0000    0.0000   -0.0000    0.0000
   64 PU4    6d2+      -0.0000   -0.0000    0.0000   -0.0000    0.0000    0.0000    0.0000   -0.0000    0.0000    0.0000
   65 PU4    4f3-      -0.0000    0.0000   -0.0000    0.0000    0.0000   -0.0000   -0.0000   -0.0000   -0.0000    0.0000
   66 PU4    5f3-       0.0000   -0.0000    0.0000   -0.0000    0.0000   -0.0000    0.0000    0.0000   -0.0000    0.0000
   67 PU4    4f2-       0.0000   -0.0000    0.0000    0.0000    0.0000   -0.0000   -0.0000    0.0000    0.0000    0.0000
   68 PU4    5f2-      -0.0000    0.0000   -0.0000   -0.0000   -0.0000   -0.0000    0.0000    0.0000    0.0000    0.0000
   69 PU4    4f1-      -0.0000    0.0000   -0.0000    0.0000    0.0000   -0.0000   -0.0000    0.0000    0.0001   -0.0001
   70 PU4    5f1-       0.0000   -0.0000    0.0000   -0.0000   -0.0000    0.0000    0.0000    0.0000    0.0000   -0.0000
   71 PU4    4f0       -0.0000    0.0000    0.0000   -0.0000   -0.0000    0.0000    0.0000    0.0002   -0.0000    0.0000
   72 PU4    5f0        0.0000   -0.0000   -0.0000   -0.0000   -0.0000   -0.0000   -0.0000    0.0000   -0.0000    0.0000
   73 PU4    4f1+       0.0000    0.0000   -0.0000   -0.0000    0.0000   -0.0000   -0.0000    0.0000    0.0001    0.0001
   74 PU4    5f1+      -0.0000   -0.0000    0.0000    0.0000   -0.0000    0.0000    0.0000    0.0000    0.0000    0.0000
   75 PU4    4f2+       0.0000    0.0000   -0.0000    0.0000   -0.0000    0.0000    0.0000   -0.0000   -0.0000    0.0000
   76 PU4    5f2+      -0.0000   -0.0000    0.0000   -0.0000    0.0000    0.0000   -0.0000   -0.0000   -0.0000    0.0000
   77 PU4    4f3+       0.0000    0.0000   -0.0000   -0.0000    0.0000   -0.0000   -0.0000   -0.0000   -0.0000   -0.0000
   78 PU4    5f3+      -0.0000   -0.0000    0.0000    0.0000    0.0000   -0.0000   -0.0000    0.0000   -0.0000   -0.0000
   79 O5     1s        -0.0000   -0.0000    0.0000   -0.0000   -0.0000    0.0000    0.0000   -0.0000   -0.0000    0.0000
   80 O5     2s        -0.0000    0.0000    0.0000   -0.0000   -0.0000    0.0000    0.0000   -0.0000   -0.0000    0.0000
   81 O5     2px        0.0000    0.0000   -0.0000   -0.0000   -0.0000   -0.0000   -0.0000   -0.0000   -0.0000    0.0000
   82 O5     2py        0.0000    0.0000    0.0000   -0.0000   -0.0000    0.0000    0.0000    0.0000    0.0000   -0.0000
   83 O5     2pz        0.0000   -0.0000    0.0000   -0.0000    0.0000    0.0000   -0.0000    0.0000   -0.0000   -0.0000
   84 S6     1s         0.0000    0.0000    0.0000    0.0000   -0.0000    1.0000   -0.0000   -0.0000   -0.0000    0.0000
   85 S6     2s         0.0000    0.0000    0.0000    0.0000   -0.0000   -0.0000   -0.0000   -0.0000   -0.0000    0.0000
   86 S6     3s         0.0000    0.0000    0.0000    0.0000   -0.0000   -0.0004   -0.0000   -0.0000   -0.0000    0.0000
   87 S6     2px       -0.0000   -0.0000    0.0000   -0.0000   -0.0000    0.0001    0.0000   -0.0000   -0.0000    0.0000
   88 S6     3px        0.0000   -0.0000    0.0000   -0.0000   -0.0000   -0.0000    0.0000   -0.0000   -0.0000    0.0000
   89 S6     2py        0.0000   -0.0000    0.0000    0.0000   -0.0000    0.0001    0.0000   -0.0000   -0.0000   -0.0000
   90 S6     3py        0.0000   -0.0000    0.0000    0.0000   -0.0000   -0.0000    0.0000   -0.0000   -0.0000   -0.0000
   91 S6     2pz        0.0000    0.0000   -0.0000   -0.0000    0.0000   -0.0000   -0.0000    0.0000    0.0000    0.0000
   92 S6     3pz       -0.0000    0.0000   -0.0000    0.0000    0.0000    0.0000   -0.0000    0.0000    0.0000   -0.0000
   93 O7     1s         0.0000   -0.0000    0.0000    0.0000   -0.0000    0.0000    0.0000   -0.0000   -0.0000   -0.0000
   94 O7     2s         0.0000    0.0000    0.0000    0.0000   -0.0000    0.0000    0.0000   -0.0000   -0.0000   -0.0000
   95 O7     2px       -0.0000    0.0000    0.0000   -0.0000   -0.0000    0.0000    0.0000    0.0000    0.0000    0.0000
   96 O7     2py       -0.0000    0.0000   -0.0000    0.0000   -0.0000   -0.0000    0.0000    0.0000   -0.0000   -0.0000
   97 O7     2pz       -0.0000   -0.0000    0.0000    0.0000    0.0000    0.0000   -0.0000    0.0000    0.0000    0.0000
   98 O8     1s        -0.0000   -0.0000    0.0000    0.0000    0.0000   -0.0000    0.0000   -0.0000    0.0000    0.0000
   99 O8     2s        -0.0000    0.0000    0.0000    0.0000    0.0000   -0.0000    0.0000   -0.0000    0.0000    0.0000
  100 O8     2px        0.0000   -0.0000   -0.0000    0.0000   -0.0000    0.0000   -0.0000   -0.0000    0.0000    0.0000
  101 O8     2py        0.0000   -0.0000    0.0000   -0.0000    0.0000    0.0000   -0.0000   -0.0000   -0.0000   -0.0000
  102 O8     2pz        0.0000   -0.0000    0.0000    0.0000   -0.0000   -0.0000    0.0000    0.0000    0.0000   -0.0000
  103 O9     1s         0.0000   -0.0000   -0.0000   -0.0000    0.0000    0.0000    0.0000   -0.0000    0.0000   -0.0000
  104 O9     2s         0.0000   -0.0000   -0.0000   -0.0000    0.0000    0.0000    0.0000   -0.0000   -0.0000   -0.0000
  105 O9     2px        0.0000    0.0000   -0.0000   -0.0000    0.0000   -0.0000   -0.0000   -0.0000   -0.0000   -0.0000
  106 O9     2py       -0.0000    0.0000   -0.0000    0.0000    0.0000   -0.0000   -0.0000   -0.0000   -0.0000    0.0000
  107 O9     2pz       -0.0000    0.0000    0.0000    0.0000    0.0000    0.0000    0.0000    0.0000   -0.0000    0.0000
  108 O10    1s         0.0000   -0.0000   -0.0000   -0.0000    0.0000    0.0000    0.0000    0.0000    0.0000    0.0000
  109 O10    2s         0.0000   -0.0000   -0.0000   -0.0000    0.0000    0.0000    0.0000    0.0000    0.0000    0.0000
  110 O10    2px       -0.0000   -0.0000   -0.0000   -0.0000    0.0000   -0.0000    0.0000   -0.0000   -0.0000   -0.0000
  111 O10    2py        0.0000   -0.0000   -0.0000    0.0000    0.0000   -0.0000    0.0000   -0.0000   -0.0000    0.0000
  112 O10    2pz        0.0000   -0.0000   -0.0000   -0.0000   -0.0000   -0.0000   -0.0000    0.0000    0.0000    0.0000
  113 H11    1s         0.0000    0.0000   -0.0000   -0.0000   -0.0000   -0.0000    0.0000    0.0000   -0.0000   -0.0000
  114 H12    1s         0.0000   -0.0000    0.0000   -0.0000   -0.0000   -0.0000   -0.0000   -0.0000    0.0000   -0.0000
  115 H13    1s        -0.0000    0.0000   -0.0000    0.0000   -0.0000   -0.0000    0.0000    0.0000   -0.0000    0.0000
 
 
      Orbital               21        22        23        24        25        26        27        28        29        30
      Energy          -31.2991  -31.2981  -31.2974  -31.2927  -31.2915  -20.3537  -20.3468  -20.2893  -20.2876  -20.2436
      Occ. No.          2.0000    2.0000    2.0000    2.0000    2.0000    2.0000    2.0000    2.0000    2.0000    2.0000
 
    1 C1     1s        -0.0000   -0.0000    0.0000   -0.0000    0.0000    0.0000   -0.0000    0.0000    0.0000   -0.0000
    2 C1     2s        -0.0000   -0.0000    0.0000   -0.0000    0.0000    0.0000   -0.0000   -0.0000   -0.0000    0.0000
    3 C1     2px        0.0000   -0.0000   -0.0000   -0.0000    0.0000   -0.0000   -0.0000    0.0000    0.0000    0.0000
    4 C1     2py        0.0000   -0.0000    0.0000    0.0000    0.0000   -0.0000   -0.0000    0.0000    0.0000    0.0000
    5 C1     2pz       -0.0000    0.0000   -0.0000    0.0000   -0.0000    0.0000    0.0000   -0.0000   -0.0000    0.0000
    6 S2     1s         0.0000    0.0000    0.0000    0.0000   -0.0000    0.0000    0.0000   -0.0000   -0.0000    0.0000
    7 S2     2s         0.0000    0.0000    0.0000    0.0000   -0.0000    0.0000    0.0000   -0.0000   -0.0000    0.0002
    8 S2     3s         0.0000    0.0000    0.0000    0.0000   -0.0000    0.0000    0.0000   -0.0000   -0.0000    0.0007
    9 S2     2px       -0.0000   -0.0000   -0.0000   -0.0000    0.0000   -0.0000   -0.0000    0.0000    0.0000   -0.0001
   10 S2     3px       -0.0000   -0.0000    0.0000   -0.0000    0.0000   -0.0000   -0.0000    0.0000    0.0000   -0.0010
   11 S2     2py       -0.0000   -0.0000   -0.0000    0.0000    0.0000   -0.0000   -0.0000    0.0000    0.0000   -0.0000
   12 S2     3py       -0.0000   -0.0000   -0.0000    0.0000    0.0000   -0.0000   -0.0000    0.0000    0.0000    0.0000
   13 S2     2pz        0.0000   -0.0000    0.0000    0.0000   -0.0000    0.0000   -0.0000   -0.0000   -0.0000    0.0000
   14 S2     3pz        0.0000   -0.0000    0.0000    0.0000   -0.0000    0.0000   -0.0000   -0.0000   -0.0000    0.0001
   15 O3     1s         0.0000    0.0000   -0.0000    0.0000   -0.0000   -0.0000   -0.0000   -0.0000   -0.0000   -0.9827
   16 O3     2s         0.0000    0.0000   -0.0000    0.0000   -0.0000    0.0000    0.0000   -0.0000   -0.0000   -0.0018
   17 O3     2px       -0.0000   -0.0000    0.0000   -0.0000   -0.0000   -0.0000   -0.0000    0.0000    0.0000   -0.0019
   18 O3     2py        0.0000   -0.0000    0.0000   -0.0000    0.0000    0.0000    0.0000   -0.0000    0.0000    0.0000
   19 O3     2pz        0.0000   -0.0000    0.0000    0.0000   -0.0000    0.0000   -0.0000   -0.0000   -0.0000    0.0002
   20 PU4    1s        -0.0000    0.0000   -0.0000   -0.0000   -0.0000   -0.0000   -0.0000   -0.0000   -0.0000    0.0000
   21 PU4    2s         0.0000   -0.0000    0.0000    0.0000    0.0000   -0.0000   -0.0000   -0.0000   -0.0000    0.0000
   22 PU4    3s        -0.0000    0.0000   -0.0000   -0.0000   -0.0000   -0.0000   -0.0000   -0.0000   -0.0000    0.0000
   23 PU4    4s        -0.0001    0.0000   -0.0000   -0.0000   -0.0000   -0.0001   -0.0001   -0.0000   -0.0000    0.0000
   24 PU4    5s         0.0004   -0.0000    0.0000    0.0000    0.0001   -0.0002   -0.0002   -0.0000   -0.0000    0.0000
   25 PU4    6s        -0.0001    0.0000   -0.0000   -0.0000   -0.0000   -0.0006   -0.0006   -0.0001   -0.0001    0.0001
   26 PU4    7s        -0.0000   -0.0000   -0.0000    0.0000    0.0000   -0.0006   -0.0006   -0.0002   -0.0002    0.0001
   27 PU4    2px       -0.0000    0.0000    0.0000    0.0000    0.0000    0.0000    0.0000    0.0000    0.0000    0.0000
   28 PU4    3px        0.0000   -0.0000   -0.0000   -0.0000   -0.0000    0.0000    0.0000    0.0000    0.0000    0.0000
   29 PU4    4px        0.0000   -0.0000   -0.0000   -0.0000   -0.0000    0.0000    0.0000    0.0000    0.0000    0.0000
   30 PU4    5px       -0.0000    0.0000    0.0000    0.0000    0.0000    0.0000   -0.0000    0.0000    0.0000    0.0000
   31 PU4    6px        0.0000   -0.0000   -0.0000   -0.0000   -0.0000    0.0000   -0.0000    0.0000    0.0001    0.0000
   32 PU4    7px       -0.0000   -0.0000   -0.0000    0.0000    0.0000    0.0000   -0.0000    0.0001    0.0001    0.0001
   33 PU4    2py       -0.0000    0.0000   -0.0000   -0.0000    0.0000    0.0000    0.0000    0.0000    0.0000    0.0000
   34 PU4    3py        0.0000   -0.0000    0.0000    0.0000   -0.0000    0.0000    0.0000    0.0000    0.0000    0.0000
   35 PU4    4py        0.0000   -0.0000    0.0000    0.0000   -0.0000    0.0000    0.0000    0.0000    0.0000    0.0000
   36 PU4    5py       -0.0000    0.0000   -0.0000   -0.0000    0.0000    0.0000   -0.0000    0.0000    0.0000    0.0000
   37 PU4    6py        0.0000   -0.0000    0.0000    0.0000   -0.0000    0.0000   -0.0000    0.0001    0.0001    0.0001
   38 PU4    7py       -0.0000   -0.0000    0.0000   -0.0000    0.0000    0.0000   -0.0000    0.0003    0.0003    0.0002
   39 PU4    2pz        0.0000    0.0000   -0.0000   -0.0000    0.0000   -0.0000    0.0000   -0.0000   -0.0000   -0.0000
   40 PU4    3pz       -0.0000   -0.0000   -0.0000    0.0000   -0.0000   -0.0000    0.0000   -0.0000   -0.0000   -0.0000
   41 PU4    4pz       -0.0000   -0.0000   -0.0000   -0.0000   -0.0000   -0.0000    0.0000   -0.0000   -0.0000   -0.0000
   42 PU4    5pz        0.0000   -0.0000    0.0000   -0.0000   -0.0000   -0.0001    0.0001   -0.0000   -0.0000   -0.0000
   43 PU4    6pz        0.0000    0.0000   -0.0000   -0.0000   -0.0000   -0.0007    0.0007   -0.0000   -0.0000   -0.0000
   44 PU4    7pz        0.0000    0.0000   -0.0000   -0.0000   -0.0000   -0.0005    0.0005   -0.0000   -0.0000   -0.0000
   45 PU4    3d2-      -0.0000    0.0000    0.0000    0.0000    0.0000   -0.0000   -0.0000   -0.0000   -0.0000    0.0000
   46 PU4    4d2-      -0.0853    0.0115    0.0083    0.5987    0.7963    0.0000    0.0000   -0.0000   -0.0000   -0.0000
   47 PU4    5d2-      -0.0001    0.0000    0.0000    0.0004    0.0006   -0.0000   -0.0000   -0.0000   -0.0000    0.0000
   48 PU4    6d2-      -0.0000    0.0000    0.0000    0.0001    0.0001   -0.0000   -0.0000   -0.0001   -0.0002    0.0000
   49 PU4    3d1-       0.0000    0.0000   -0.0000    0.0000   -0.0000    0.0000   -0.0000    0.0000    0.0000   -0.0000
   50 PU4    4d1-       0.0372    0.8927   -0.4490    0.0065   -0.0091   -0.0000   -0.0000    0.0000    0.0000   -0.0000
   51 PU4    5d1-       0.0000    0.0008   -0.0004    0.0000   -0.0000    0.0000   -0.0000    0.0000    0.0000   -0.0000
   52 PU4    6d1-       0.0000    0.0001   -0.0000    0.0000   -0.0000    0.0000    0.0000    0.0000    0.0000   -0.0000
   53 PU4    3d0        0.0000   -0.0000    0.0000    0.0000    0.0000   -0.0000   -0.0000    0.0000    0.0000   -0.0000
   54 PU4    4d0        0.9935   -0.0397    0.0012    0.0003    0.1068   -0.0000   -0.0000    0.0000    0.0000   -0.0000
   55 PU4    5d0        0.0009   -0.0000    0.0000    0.0000    0.0001   -0.0001   -0.0001    0.0000    0.0000   -0.0000
   56 PU4    6d0        0.0000   -0.0000    0.0000    0.0000   -0.0000   -0.0005   -0.0005    0.0001    0.0001   -0.0001
   57 PU4    3d1+       0.0000    0.0000    0.0000   -0.0000   -0.0000    0.0000   -0.0000   -0.0000    0.0000    0.0000
   58 PU4    4d1+       0.0174    0.4487    0.8934   -0.0120   -0.0048   -0.0000   -0.0000    0.0000    0.0000    0.0000
   59 PU4    5d1+       0.0000    0.0004    0.0008   -0.0000   -0.0000    0.0000   -0.0000   -0.0000    0.0000    0.0000
   60 PU4    6d1+       0.0000    0.0000    0.0001   -0.0000   -0.0000    0.0000    0.0000   -0.0000    0.0000    0.0000
   61 PU4    3d2+       0.0000   -0.0000    0.0000    0.0000   -0.0000    0.0000    0.0000    0.0000    0.0000   -0.0000
   62 PU4    4d2+       0.0633   -0.0090    0.0108    0.8008   -0.5953   -0.0000   -0.0000    0.0000   -0.0000   -0.0000
   63 PU4    5d2+       0.0000   -0.0000    0.0000    0.0006   -0.0004    0.0000    0.0000    0.0000   -0.0000   -0.0000
   64 PU4    6d2+       0.0000   -0.0000    0.0000    0.0001   -0.0001    0.0000    0.0000    0.0001    0.0000   -0.0001
   65 PU4    4f3-       0.0000    0.0000   -0.0000    0.0000   -0.0000   -0.0000    0.0000   -0.0000    0.0000   -0.0000
   66 PU4    5f3-       0.0000    0.0000   -0.0000    0.0000   -0.0000   -0.0000    0.0000   -0.0000    0.0000   -0.0000
   67 PU4    4f2-      -0.0000    0.0000    0.0000    0.0000    0.0000   -0.0000    0.0000    0.0000   -0.0000    0.0000
   68 PU4    5f2-       0.0000   -0.0000   -0.0000   -0.0000   -0.0000   -0.0000    0.0000   -0.0000   -0.0000    0.0000
   69 PU4    4f1-       0.0000    0.0000   -0.0000    0.0000   -0.0000    0.0000   -0.0000   -0.0000   -0.0000   -0.0000
   70 PU4    5f1-       0.0000    0.0000   -0.0000    0.0000   -0.0000    0.0000   -0.0000   -0.0000   -0.0000   -0.0000
   71 PU4    4f0        0.0000   -0.0000   -0.0000    0.0000    0.0000   -0.0000    0.0000    0.0000    0.0000    0.0000
   72 PU4    5f0        0.0000    0.0000   -0.0000   -0.0000    0.0000   -0.0000    0.0000    0.0000    0.0000    0.0000
   73 PU4    4f1+       0.0000    0.0000    0.0000   -0.0000   -0.0000    0.0000   -0.0000    0.0000   -0.0000    0.0000
   74 PU4    5f1+       0.0000    0.0000    0.0000   -0.0000   -0.0000    0.0000   -0.0000   -0.0000   -0.0000   -0.0000
   75 PU4    4f2+       0.0000   -0.0000    0.0000    0.0000   -0.0000    0.0000   -0.0000    0.0000   -0.0000    0.0000
   76 PU4    5f2+      -0.0000    0.0000   -0.0000   -0.0000    0.0000    0.0000   -0.0000    0.0000   -0.0000    0.0000
   77 PU4    4f3+       0.0000    0.0000    0.0000   -0.0000   -0.0000   -0.0000    0.0000    0.0000    0.0000    0.0000
   78 PU4    5f3+       0.0000    0.0000    0.0000   -0.0000   -0.0000   -0.0000    0.0000   -0.0000   -0.0000   -0.0000
   79 O5     1s         0.0000   -0.0000    0.0000    0.0000   -0.0000   -0.0000   -0.0000    1.0000    0.0104   -0.0000
   80 O5     2s         0.0000   -0.0000    0.0000    0.0000   -0.0000    0.0000    0.0000    0.0017    0.0001    0.0000
   81 O5     2px        0.0000    0.0000    0.0000    0.0000    0.0000    0.0000    0.0000   -0.0018   -0.0000    0.0000
   82 O5     2py       -0.0000    0.0000   -0.0000    0.0000   -0.0000   -0.0000   -0.0000    0.0000    0.0001   -0.0000
   83 O5     2pz        0.0000    0.0000   -0.0000   -0.0000    0.0000    0.0000   -0.0000    0.0000   -0.0000    0.0000
   84 S6     1s         0.0000    0.0000    0.0000   -0.0000   -0.0000    0.0000    0.0000   -0.0000   -0.0000    0.0000
   85 S6     2s         0.0000    0.0000    0.0000   -0.0000   -0.0000    0.0000    0.0000   -0.0002   -0.0002    0.0000
   86 S6     3s         0.0000    0.0000    0.0000   -0.0000   -0.0000    0.0000    0.0000   -0.0009   -0.0009    0.0000
   87 S6     2px        0.0000    0.0000    0.0000    0.0000   -0.0000    0.0000    0.0000   -0.0001    0.0001    0.0000
   88 S6     3px        0.0000    0.0000    0.0000    0.0000   -0.0000    0.0000    0.0000   -0.0009    0.0004   -0.0000
   89 S6     2py        0.0000    0.0000   -0.0000   -0.0000   -0.0000    0.0000    0.0000   -0.0000   -0.0001    0.0000
   90 S6     3py        0.0000    0.0000   -0.0000   -0.0000   -0.0000    0.0000    0.0000   -0.0001   -0.0008    0.0000
   91 S6     2pz       -0.0000    0.0000   -0.0000    0.0000    0.0000    0.0000   -0.0000    0.0000    0.0000   -0.0000
   92 S6     3pz       -0.0000    0.0000   -0.0000    0.0000    0.0000    0.0000   -0.0000    0.0000    0.0000    0.0000
   93 O7     1s         0.0000   -0.0000   -0.0000   -0.0000   -0.0000   -0.0000   -0.0000   -0.0104    1.0000   -0.0000
   94 O7     2s         0.0000   -0.0000   -0.0000   -0.0000   -0.0000    0.0000    0.0000    0.0000    0.0017    0.0000
   95 O7     2px       -0.0000    0.0000    0.0000   -0.0000   -0.0000   -0.0000   -0.0000    0.0001    0.0011    0.0000
   96 O7     2py        0.0000    0.0000    0.0000   -0.0000    0.0000    0.0000    0.0000    0.0001   -0.0015    0.0000
   97 O7     2pz        0.0000    0.0000    0.0000    0.0000    0.0000    0.0000   -0.0000   -0.0000    0.0000    0.0000
   98 O8     1s         0.0000    0.0000    0.0000   -0.0000   -0.0000   -0.0000   -0.0000   -0.0000   -0.0000    0.1854
   99 O8     2s         0.0000    0.0000    0.0000   -0.0000   -0.0000    0.0000    0.0000   -0.0000   -0.0000    0.0003
  100 O8     2px        0.0000    0.0000   -0.0000    0.0000    0.0000    0.0000    0.0000    0.0000   -0.0000   -0.0001
  101 O8     2py       -0.0000   -0.0000   -0.0000    0.0000   -0.0000    0.0000   -0.0000    0.0000    0.0000    0.0003
  102 O8     2pz        0.0000   -0.0000   -0.0000   -0.0000   -0.0000    0.0000   -0.0000   -0.0000   -0.0000   -0.0000
  103 O9     1s         0.0000   -0.0000    0.0000    0.0000    0.0000    1.0001   -0.0010    0.0000    0.0000   -0.0000
  104 O9     2s         0.0000   -0.0000    0.0000    0.0000    0.0000    0.0014    0.0001    0.0000    0.0000    0.0000
  105 O9     2px        0.0000    0.0000    0.0000    0.0000    0.0000   -0.0000    0.0000   -0.0000   -0.0000   -0.0000
  106 O9     2py        0.0000    0.0000   -0.0000   -0.0000    0.0000   -0.0000    0.0000   -0.0000   -0.0000   -0.0000
  107 O9     2pz       -0.0000    0.0000   -0.0000   -0.0000   -0.0000   -0.0014   -0.0000    0.0000    0.0000   -0.0000
  108 O10    1s         0.0000   -0.0000    0.0000    0.0000    0.0000    0.0010    1.0001    0.0000    0.0000   -0.0000
  109 O10    2s         0.0000   -0.0000    0.0000    0.0000   -0.0000    0.0001    0.0015   -0.0000   -0.0000   -0.0000
  110 O10    2px       -0.0000   -0.0000   -0.0000    0.0000    0.0000    0.0000    0.0000   -0.0000   -0.0000   -0.0000
  111 O10    2py       -0.0000   -0.0000    0.0000    0.0000    0.0000    0.0000    0.0000   -0.0000   -0.0000   -0.0000
  112 O10    2pz        0.0000   -0.0000    0.0000    0.0000    0.0000    0.0000    0.0014   -0.0000   -0.0000    0.0000
  113 H11    1s        -0.0000   -0.0000   -0.0000    0.0000   -0.0000    0.0000    0.0000   -0.0000   -0.0000    0.0000
  114 H12    1s         0.0000    0.0000   -0.0000    0.0000   -0.0000    0.0000    0.0001   -0.0000   -0.0000   -0.0000
  115 H13    1s        -0.0000   -0.0000    0.0000   -0.0000   -0.0000    0.0000    0.0000   -0.0000   -0.0000    0.0000
 
 
      Orbital               31        32        33        34        35        36        37        38        39        40
      Energy          -20.2435  -16.8468  -16.8383  -16.8371  -16.8326  -16.8326  -16.8273  -16.8267  -13.7622  -11.2138
      Occ. No.          2.0000    2.0000    2.0000    2.0000    2.0000    2.0000    2.0000    2.0000    2.0000    2.0000
 
    1 C1     1s         0.0000   -0.0000    0.0000   -0.0000    0.0000    0.0000    0.0000   -0.0000   -0.0000    1.0003
    2 C1     2s        -0.0000   -0.0000    0.0000   -0.0000    0.0000    0.0000    0.0000   -0.0000   -0.0000    0.0014
    3 C1     2px        0.0000    0.0000    0.0000    0.0000   -0.0000   -0.0000   -0.0000   -0.0000    0.0000    0.0001
    4 C1     2py       -0.0000    0.0000   -0.0000    0.0000   -0.0000    0.0000   -0.0000    0.0000    0.0000    0.0001
[...]
 ###    RunFile label nBasis                                                 ###
 ###    was used       41 times                                              ###
 ###                                                                         ###
 ###                                                                         ###
 ###############################################################################
 ###############################################################################
 ###############################################################################
 ###############################################################################
 ###                                                                         ###
 ###                                                                         ###
 ###    RunFile label ipCff                                                  ###
 ###    was used       41 times                                              ###
 ###                                                                         ###
 ###                                                                         ###
 ###############################################################################
 ###############################################################################
 ###############################################################################
 ###############################################################################
 ###                                                                         ###
 ###                                                                         ###
 ###    RunFile label ipExp                                                  ###
 ###    was used       41 times                                              ###
 ###                                                                         ###
 ###                                                                         ###
 ###############################################################################
 ###############################################################################
 ###############################################################################
 ###############################################################################
 ###                                                                         ###
 ###                                                                         ###
 ###    RunFile label IndS                                                   ###
 ###    was used       41 times                                              ###
 ###                                                                         ###
 ###                                                                         ###
 ###############################################################################
 ###############################################################################
 ###############################################################################
 ###############################################################################
 ###                                                                         ###
 ###                                                                         ###
 ###    RunFile label ip_Occ                                                 ###
 ###    was used       41 times                                              ###
 ###                                                                         ###
 ###                                                                         ###
 ###############################################################################
 ###############################################################################
 ###############################################################################
 ###############################################################################
 ###                                                                         ###
 ###                                                                         ###
 ###    RunFile label ipAkl                                                  ###
 ###    was used       41 times                                              ###
 ###                                                                         ###
 ###                                                                         ###
 ###############################################################################
 ###############################################################################
 ###############################################################################
 ###############################################################################
 ###                                                                         ###
 ###                                                                         ###
 ###    RunFile label ipBk                                                   ###
 ###    was used       41 times                                              ###
 ###                                                                         ###
 ###                                                                         ###
 ###############################################################################
 ###############################################################################
 ###############################################################################
 ###############################################################################
 ###                                                                         ###
 ###                                                                         ###
 ###    RunFile label nOpt                                                   ###
 ###    was used       41 times                                              ###
 ###                                                                         ###
 ###                                                                         ###
 ###############################################################################
 ###############################################################################
 ###############################################################################
 ###############################################################################
 ###                                                                         ###
 ###                                                                         ###
 ###    RunFile label Prjct                                                  ###
 ###    was used       41 times                                              ###
 ###                                                                         ###
 ###                                                                         ###
 ###############################################################################
 ###############################################################################
 ###############################################################################
 ###############################################################################
 ###                                                                         ###
 ###                                                                         ###
 ###    RunFile label Transf                                                 ###
 ###    was used       41 times                                              ###
 ###                                                                         ###
 ###                                                                         ###
 ###############################################################################
 ###############################################################################
 ###############################################################################
 ###############################################################################
 ###                                                                         ###
 ###                                                                         ###
 ###    RunFile label iCoSet                                                 ###
 ###    was used       41 times                                              ###
 ###                                                                         ###
 ###                                                                         ###
 ###############################################################################
 ###############################################################################
 ###############################################################################
 ###############################################################################
 ###                                                                         ###
 ###                                                                         ###
 ###    RunFile label nBasis_Cntrct                                          ###
 ###    was used       41 times                                              ###
 ###                                                                         ###
 ###                                                                         ###
 ###############################################################################
 ###############################################################################
 ###############################################################################
 ###############################################################################
 ###                                                                         ###
 ###                                                                         ###
 ###    RunFile label ipCff_Cntrct                                           ###
 ###    was used       41 times                                              ###
 ###                                                                         ###
 ###                                                                         ###
 ###############################################################################
 ###############################################################################
 ###############################################################################
 ###############################################################################
 ###                                                                         ###
 ###                                                                         ###
 ###    RunFile label ipCff_Prim                                             ###
 ###    was used       41 times                                              ###
 ###                                                                         ###
 ###                                                                         ###
 ###############################################################################
 ###############################################################################
 ###############################################################################
 ###############################################################################
 ###                                                                         ###
 ###                                                                         ###
 ###    RunFile label ipFockOp                                               ###
 ###    was used       41 times                                              ###
 ###                                                                         ###
 ###                                                                         ###
 ###############################################################################
 ###############################################################################
 ###############################################################################
 ###############################################################################
 ###                                                                         ###
 ###                                                                         ###
 ###    RunFile label IrrCmp                                                 ###
 ###    was used       41 times                                              ###
 ###                                                                         ###
 ###                                                                         ###
 ###############################################################################
 ###############################################################################
 ###############################################################################
 ###############################################################################
 ###                                                                         ###
 ###                                                                         ###
 ###    RunFile label iAOtSO                                                 ###
 ###    was used       41 times                                              ###
 ###                                                                         ###
 ###                                                                         ###
 ###############################################################################
 ###############################################################################
 ###############################################################################
 ###############################################################################
 ###                                                                         ###
 ###                                                                         ###
 ###    RunFile label iSOInf                                                 ###
 ###    was used       41 times                                              ###
 ###                                                                         ###
 ###                                                                         ###
 ###############################################################################
 ###############################################################################
 ###############################################################################
 ###############################################################################
 ###                                                                         ###
 ###                                                                         ###
 ###    RunFile label FragShell                                              ###
 ###    was used       41 times                                              ###
 ###                                                                         ###
 ###                                                                         ###
 ###############################################################################
 ###############################################################################
 ###############################################################################
 ###############################################################################
 ###                                                                         ###
 ###                                                                         ###
 ###    RunFile label AuxShell                                               ###
 ###    was used       41 times                                              ###
 ###                                                                         ###
 ###                                                                         ###
 ###############################################################################
 ###############################################################################
--- Stop Module: rasscf at Fri Nov 16 17:03:34 2018 /rc=_RC_ALL_IS_WELL_ ---
*** files: PuO2_CH3SO2_SO2-m1-triplet.casscf.MB.LprOrb PuO2_CH3SO2_SO2-m1-triplet.casscf.MB.rasscf.molden.11 PuO2_CH3SO2_SO2-m1-triplet.casscf.MB.rasscf.molden.20
           PuO2_CH3SO2_SO2-m1-triplet.casscf.MB.rasscf.molden.4 PuO2_CH3SO2_SO2-m1-triplet.casscf.MB.rasscf.molden.2 PuO2_CH3SO2_SO2-m1-triplet.casscf.MB.rasscf.molden.15
           PuO2_CH3SO2_SO2-m1-triplet.casscf.MB.rasscf.molden.19 PuO2_CH3SO2_SO2-m1-triplet.casscf.MB.rasscf.molden.3 PuO2_CH3SO2_SO2-m1-triplet.casscf.MB.rasscf.molden.8
           PuO2_CH3SO2_SO2-m1-triplet.casscf.MB.rasscf.molden PuO2_CH3SO2_SO2-m1-triplet.casscf.MB.rasscf.molden.10 PuO2_CH3SO2_SO2-m1-triplet.casscf.MB.rasscf.molden.7
           PuO2_CH3SO2_SO2-m1-triplet.casscf.MB.rasscf.molden.6 PuO2_CH3SO2_SO2-m1-triplet.casscf.MB.rasscf.molden.14 PuO2_CH3SO2_SO2-m1-triplet.casscf.MB.rasscf.molden.13
           PuO2_CH3SO2_SO2-m1-triplet.casscf.MB.rasscf.molden.18 PuO2_CH3SO2_SO2-m1-triplet.casscf.MB.rasscf.molden.12 PuO2_CH3SO2_SO2-m1-triplet.casscf.MB.rasscf.molden.5
           PuO2_CH3SO2_SO2-m1-triplet.casscf.MB.rasscf.molden.1 PuO2_CH3SO2_SO2-m1-triplet.casscf.MB.rasscf.molden.16 PuO2_CH3SO2_SO2-m1-triplet.casscf.MB.rasscf.molden.17
           PuO2_CH3SO2_SO2-m1-triplet.casscf.MB.rasscf.molden.9 PuO2_CH3SO2_SO2-m1-triplet.casscf.MB.LoProp.molden PuO2_CH3SO2_SO2-m1-triplet.casscf.MB.RasOrb.12
           PuO2_CH3SO2_SO2-m1-triplet.casscf.MB.RasOrb.10 PuO2_CH3SO2_SO2-m1-triplet.casscf.MB.RasOrb.11 PuO2_CH3SO2_SO2-m1-triplet.casscf.MB.RasOrb.2
           PuO2_CH3SO2_SO2-m1-triplet.casscf.MB.RasOrb.20 PuO2_CH3SO2_SO2-m1-triplet.casscf.MB.RasOrb PuO2_CH3SO2_SO2-m1-triplet.casscf.MB.RasOrb.1
           PuO2_CH3SO2_SO2-m1-triplet.casscf.MB.RasOrb.13 PuO2_CH3SO2_SO2-m1-triplet.casscf.MB.RasOrb.17 PuO2_CH3SO2_SO2-m1-triplet.casscf.MB.RasOrb.7
           PuO2_CH3SO2_SO2-m1-triplet.casscf.MB.RasOrb.3 PuO2_CH3SO2_SO2-m1-triplet.casscf.MB.RasOrb.8 PuO2_CH3SO2_SO2-m1-triplet.casscf.MB.RasOrb.5
           PuO2_CH3SO2_SO2-m1-triplet.casscf.MB.RasOrb.4 PuO2_CH3SO2_SO2-m1-triplet.casscf.MB.RasOrb.6 PuO2_CH3SO2_SO2-m1-triplet.casscf.MB.RasOrb.19
           PuO2_CH3SO2_SO2-m1-triplet.casscf.MB.RasOrb.14 PuO2_CH3SO2_SO2-m1-triplet.casscf.MB.RasOrb.9 PuO2_CH3SO2_SO2-m1-triplet.casscf.MB.RasOrb.15
           PuO2_CH3SO2_SO2-m1-triplet.casscf.MB.RasOrb.18 PuO2_CH3SO2_SO2-m1-triplet.casscf.MB.RasOrb.16 PuO2_CH3SO2_SO2-m1-triplet.casscf.MB.rasscf.h5
           PuO2_CH3SO2_SO2-m1-triplet.casscf.MB.SpdOrb.18 PuO2_CH3SO2_SO2-m1-triplet.casscf.MB.SpdOrb.19 PuO2_CH3SO2_SO2-m1-triplet.casscf.MB.SpdOrb.6
           PuO2_CH3SO2_SO2-m1-triplet.casscf.MB.SpdOrb.9 PuO2_CH3SO2_SO2-m1-triplet.casscf.MB.SpdOrb.1 PuO2_CH3SO2_SO2-m1-triplet.casscf.MB.SpdOrb.2
           PuO2_CH3SO2_SO2-m1-triplet.casscf.MB.SpdOrb.20 PuO2_CH3SO2_SO2-m1-triplet.casscf.MB.SpdOrb.12 PuO2_CH3SO2_SO2-m1-triplet.casscf.MB.SpdOrb.14
           PuO2_CH3SO2_SO2-m1-triplet.casscf.MB.SpdOrb.13 PuO2_CH3SO2_SO2-m1-triplet.casscf.MB.SpdOrb.10 PuO2_CH3SO2_SO2-m1-triplet.casscf.MB.SpdOrb.5
           PuO2_CH3SO2_SO2-m1-triplet.casscf.MB.SpdOrb.4 PuO2_CH3SO2_SO2-m1-triplet.casscf.MB.SpdOrb.11 PuO2_CH3SO2_SO2-m1-triplet.casscf.MB.SpdOrb.3
           PuO2_CH3SO2_SO2-m1-triplet.casscf.MB.SpdOrb.7 PuO2_CH3SO2_SO2-m1-triplet.casscf.MB.SpdOrb.15 PuO2_CH3SO2_SO2-m1-triplet.casscf.MB.SpdOrb.16
           PuO2_CH3SO2_SO2-m1-triplet.casscf.MB.SpdOrb.8 PuO2_CH3SO2_SO2-m1-triplet.casscf.MB.SpdOrb.17 xmldump
    saved to directory /home/vallet/John-methylsulfonyl/PuO2_CH3SO2_SO2-m1/triplet-geom/optg-freq-pbe0/SO-XMS
--- Module rasscf spent 1 minute 25 seconds ---

>>> COPY PuO2_CH3SO2_SO2-m1-triplet.casscf.MB.RasOrb /home/vallet/John-methylsulfonyl/PuO2_CH3SO2_SO2-m1/triplet-geom/optg-freq-pbe0/SO-XMS/PuO2_CH3SO2_SO2-m1-triplet.casscf.MB.RasOrb_singlets

>>> COPY PuO2_CH3SO2_SO2-m1-triplet.casscf.MB.rasscf.molden /home/vallet/John-methylsulfonyl/PuO2_CH3SO2_SO2-m1/triplet-geom/optg-freq-pbe0/SO-XMS/PuO2_CH3SO2_SO2-m1-triplet.casscf.MB.rasscf_singlets.molden

    Timing: Wall=421.17 User=2780.56 System=83.72
