   This run of MOLCAS is using the pymolcas driver

                             OPE
                             OPE          NMOL  CASOP  ENMOLC A   SO
                 OPE        NMOLC        AS  OP EN  MO LC     AS  OP
                OPENM       OL CA        SO  PE NM  OL CA     SOP EN
                OP EN      MO   LC       AS  OP ENMOL  CASO   PENMOL
                OP  EN     MO   LC       AS  OP EN     MO     LC ASO
               OP   E  NMOL  C  AS       OP  EN MO     LC     AS  OP
               OP  E   NMO   LC AS        OPEN  MO     LCASOP EN   M
               O  PEN   MO  LCA  SO
            OPE   NMO   L   CAS    OP
        OPENMOL  CASOP     ENMOL   CASOPE
     OPENMOLCA   SOPENMOLCASOPEN   MOLCASOPE
    OPENMOLCAS   OP           EN   MOL    CAS
    OPENMOLCAS       OP  ENM        O     LCA
    OPENMOLCAS    OPEN  MOLCASO     P  E  NMO
    OPENMOLCAS     OP               E  N  MOL
    OPENMOLCA   SO           PENM   O  L  CAS    OPEN    MO    LCAS
    OPENMOLCA   SOP           ENM   O  L  CAS   OP  EN  MOLC  AS   O
    OPENMOLCA   SOPE           NM      O  LCA   S      OP  EN MO
    OPENMOLC                AS         O  PEN   M      OL  CA  SOPE
    OPENMO        LCASOPE  NMOL        C  ASO   P      ENMOLC     AS
    OPE     NMO      LCA  SO     P     E   NM   OL  CA SO  PE N   MO
          OPENMOLCA            SOPE   NMO        LCAS  O    P  ENMO
     OPENMOLCASOPENMOLCASOPENMOLCASOPENMOLCA
        OPENMOLCASOPENMOLCASOPENMOLCASOPE
            OPENMOLCASOPENMOLCASOPENM
               OPENMOLCASOPENMOLCA        version: 18.09
                   OPENMOLCASO
                       OPE                tag: 50-g6d6e5e5-dirty

 OpenMolcas is free software; you can redistribute it and/or modify it
 under the terms of the GNU Lesser General Public License version 2.1.
 OpenMolcas is distributed in the hope that it will be useful, but it
 is provided "as is" and without any express or implied warranties.
 For more details see the full text of the license in the file
 LICENSE or in <http://www.gnu.org/licenses/>.

                 Copyright (C) The OpenMolcas Authors
           For the author list and the recommended citation,
                   consult the file CONTRIBUTORS.md

           *************************************************
           * pymolcas version py2.04                       *
           *   build 3b3f1139d1f9af0cd96dc01c0ce9d5c0      *
           *   (after the EMIL interpreter by V. Veryazov) *
           *************************************************

configuration info
------------------
C Compiler ID: Intel
C flags: -std=gnu99 -qopenmp
Fortran Compiler ID: Intel
Fortran flags: -fpp -i8 -r8 -heap-arrays -qopenmp
Definitions: _MOLCAS_;_I8_;_LINUX_;_MKL_;_FDE_
Parallel: OFF (GA=OFF)


   ----------------------------------------------------------------------------------------------------------
  |
  |           Project: NpO2_CH3SO2_SO2-m1-doublet.casscf.MB
  |    Submitted from: /home/vallet/John-methylsulfonyl/NpO2_CH3SO2_SO2-m1/doublet-geom/optg-freq-pbe0/SO-XMS
  |      Scratch area: /state/partition2/vallet/499168.phlam-s-sakura/NpO2_CH3SO2_SO2-m1-doublet.casscf.MB
  |   Save outputs to: /home/vallet/John-methylsulfonyl/NpO2_CH3SO2_SO2-m1/doublet-geom/optg-freq-pbe0/SO-XMS
  |            Molcas: /home/pcmt/OpenMolcas/OpenMolcas-20181005
  |
  | Scratch area is empty
  |
  |    MOLCAS_DRIVER = /home/pcmt/OpenMolcas/OpenMolcas-20181005/sbin/pymolcas
  |   MOLCAS_LICENSE = /home/pcmt/molcas/license
  |    MOLCAS_MOLDEN = ON
  |    MOLCAS_NPROCS = 1
  |    MOLCAS_SOURCE = /home/pcmt/OpenMolcas/OpenMolcas-20181005
  | MOLCAS_STRUCTURE = 0
  |
   ----------------------------------------------------------------------------------------------------------

++ ---------   Input file   ---------

&GATEWAY
   COORD=$HomeDir/NpO2_CH3SO2_SO2-m1-doublet.pbe0.optg-zaxis.xyz
   BASIS=ANO-RCC-MB
   Group=Nosym
   ANGM=0.0 0.0 0.0
   RICD

>>> COPY $Project.RunFile $HomeDir

&SEWARD

&RASSCF
   Spin=4
   Symmetry=1
   Nactel=3 0 0
   Inactive=90
   Ras2=5
   CIRoots=6 6 1

>>> COPY $Project.RasOrb $HomeDir/$Project.RasOrb_quartets

>>> COPY $Project.rasscf.molden $HomeDir/$Project.rasscf_quartets.molden

&RASSCF
   Spin=2
   Symmetry=1
   Nactel=3 0 0
   Inactive=90
   Ras2=5
   CIRoots=12 12 1

>>> COPY $Project.RasOrb $HomeDir/$Project.RasOrb_doublets

>>> COPY $Project.rasscf.molden $HomeDir/$Project.rasscf_doublets.molden

-- ----------------------------------

--- Start Module: gateway at Sat Nov 17 18:29:27 2018 ---
 
()()()()()()()()()()()()()()()()()()()()()()()()()()()()()()()()()()()()()()()()()()()()()()()()()()

                                              &GATEWAY

                                   only a single process is used
                       available to each process: 16 GB of memory, 8 threads
()()()()()()()()()()()()()()()()()()()()()()()()()()()()()()()()()()()()()()()()()()()()()()()()()()
 
 
++    Symmetry information:
      ---------------------
 
                    Character Table for C1 
 
                             E  
                    a        1  x, y, xy, Rz, z, xz, Ry, yz, Rx, I
--
 
 
++    Basis set information:
      ----------------------
 
 
      Basis set label: C.ANO-RCC...2S1P.
 
      Electronic valence basis set:
      ------------------
      Associated Effective Charge   6.000000 au
      Associated Actual Charge      6.000000 au
      Nuclear Model: Point charge
 
      Shell  nPrim  nBasis  Cartesian Spherical Contaminant
         s      14       2        X                  
         p       9       1        X                  
 
 
      Basis set label: S.ANO-RCC...3S2P.
 
      Electronic valence basis set:
      ------------------
      Associated Effective Charge  16.000000 au
      Associated Actual Charge     16.000000 au
      Nuclear Model: Point charge
 
      Shell  nPrim  nBasis  Cartesian Spherical Contaminant
         s      17       3        X                  
         p      12       2        X                  
 
 
      Basis set label: O.ANO-RCC...2S1P.
 
      Electronic valence basis set:
      ------------------
      Associated Effective Charge   8.000000 au
      Associated Actual Charge      8.000000 au
      Nuclear Model: Point charge
 
      Shell  nPrim  nBasis  Cartesian Spherical Contaminant
         s      14       2        X                  
         p       9       1        X                  
 
 
      Basis set label: NP.ANO-RCC...7S6P4D2F.
 
      Electronic valence basis set:
      ------------------
      Associated Effective Charge  93.000000 au
      Associated Actual Charge     93.000000 au
      Nuclear Model: Point charge
 
      Shell  nPrim  nBasis  Cartesian Spherical Contaminant
         s      26       7        X                  
         p      23       6        X                  
         d      17       4                 X         
         f      13       2                 X         
 
 
      Basis set label: O.ANO-RCC...2S1P.
 
      Electronic valence basis set:
      ------------------
      Associated Effective Charge   8.000000 au
      Associated Actual Charge      8.000000 au
      Nuclear Model: Point charge
 
      Shell  nPrim  nBasis  Cartesian Spherical Contaminant
         s      14       2        X                  
         p       9       1        X                  
 
 
      Basis set label: S.ANO-RCC...3S2P.
 
      Electronic valence basis set:
      ------------------
      Associated Effective Charge  16.000000 au
      Associated Actual Charge     16.000000 au
      Nuclear Model: Point charge
 
      Shell  nPrim  nBasis  Cartesian Spherical Contaminant
         s      17       3        X                  
         p      12       2        X                  
 
 
      Basis set label: O.ANO-RCC...2S1P.
 
      Electronic valence basis set:
      ------------------
      Associated Effective Charge   8.000000 au
      Associated Actual Charge      8.000000 au
      Nuclear Model: Point charge
 
      Shell  nPrim  nBasis  Cartesian Spherical Contaminant
         s      14       2        X                  
         p       9       1        X                  
 
 
      Basis set label: H.ANO-RCC...1S.
 
      Electronic valence basis set:
      ------------------
      Associated Effective Charge   1.000000 au
      Associated Actual Charge      1.000000 au
      Nuclear Model: Point charge
 
      Shell  nPrim  nBasis  Cartesian Spherical Contaminant
         s       8       1        X                  
--
 
 
++    Molecular structure info:
      -------------------------
 
                    ************************************************ 
                    **** Cartesian Coordinates / Bohr, Angstrom **** 
                    ************************************************ 
 
     Center  Label                x              y              z                     x              y              z
        1      C1               2.860592       5.800836      -3.765393              1.513760       3.069670      -1.992560
        2      S2               2.586034       5.247429      -0.391513              1.368470       2.776820      -0.207180
        3      O3              -0.253771       4.739339      -0.117957             -0.134290       2.507950      -0.062420
        4      NP4              0.000000       0.000000       0.000000              0.000000       0.000000       0.000000
        5      O5               0.236613      -4.809107      -0.009978              0.125210      -2.544870      -0.005280
        6      S6              -2.610165      -5.300701      -0.080899             -1.381240      -2.805010      -0.042810
        7      O7              -3.955953      -2.744241      -0.014608             -2.093400      -1.452190      -0.007730
        8      O8               3.913453       2.686265      -0.115538              2.070910       1.421510      -0.061140
        9      O9               0.000000       0.000000       3.348784              0.000000       0.000000       1.772100
       10      O10             -0.006444      -0.012151      -3.361728             -0.003410      -0.006430      -1.778950
       11      H11              4.857976       6.016964      -4.223859              2.570730       3.184040      -2.235170
       12      H12              2.048161       4.153297      -4.700051              1.083840       2.197830      -2.487160
       13      H13              1.816877       7.517123      -4.225201              0.961450       3.977890      -2.235880
 
                    *************************************** 
                    *    InterNuclear Distances / Bohr    * 
                    *************************************** 
 
               1 C1            2 S2            3 O3            4 NP4           5 O5            6 S6    
    1 C1       0.000000
    2 S2       3.429971        0.000000
    3 O3       4.912212        2.897841        0.000000
    4 NP4      7.484040        5.863136        4.747594        0.000000
    5 O5      11.556786       10.334374        9.561640        4.814935        0.000000
    6 S6      12.913124       11.762653       10.312922        5.909055        2.889782        0.000000
    7 O7      11.556470       10.334720        8.349898        4.814627        4.673467        2.889814
    8 O8       4.912281        2.897890        4.645522        4.748103        8.349305       10.312633
    9 O9       9.614790        6.943551        5.877416        3.348784        5.870671        6.831772
   10 O10      6.494124        6.573150        5.758461        3.361756        5.856970        6.746255
   11 H11      2.060690        4.521148        6.679874        8.811627       12.502704       14.178391
   12 H12      2.061071        4.477715        5.161194        6.598130       10.276341       11.507156
   13 H13      2.060681        4.521092        5.373372        8.812519       13.122549       14.179934
 
               7 O7            8 O8            9 O9           10 O10          11 H11          12 H12   
    7 O7       0.000000
    8 O8       9.561805        0.000000
    9 O9       5.873059        5.876449        0.000000
   10 O10      5.853730        5.760624        6.710526        0.000000
   11 H11     13.121046        5.372521       10.823525        7.794618        0.000000
   12 H12     10.275154        5.162292        9.285935        4.833577        3.405154        0.000000
   13 H13     12.504009        6.679981       10.824667        7.794873        3.390982        3.405040
 
              13 H13   
   13 H13      0.000000
 
                    ******************************************* 
                    *    InterNuclear Distances / Angstrom    * 
                    ******************************************* 
 
               1 C1            2 S2            3 O3            4 NP4           5 O5            6 S6    
    1 C1       0.000000
    2 S2       1.815063        0.000000
    3 O3       2.599430        1.533471        0.000000
    4 NP4      3.960384        3.102638        2.512318        0.000000
    5 O5       6.115588        5.468715        5.059802        2.547954        0.000000
    6 S6       6.833331        6.224528        5.457363        3.126937        1.529207        0.000000
    7 O7       6.115421        5.468898        4.418576        2.547791        2.473092        1.529223
    8 O8       2.599467        1.533498        2.458304        2.512588        4.418262        5.457211
    9 O9       5.087928        3.674369        3.110195        1.772100        3.106625        3.615218
   10 O10      3.436543        3.478361        3.047247        1.778965        3.099375        3.569965
   11 H11      1.090470        2.392488        3.534837        4.662912        6.616146        7.502881
   12 H12      1.090672        2.369505        2.731186        3.491580        5.438005        6.089325
   13 H13      1.090465        2.392459        2.843466        4.663384        6.944154        7.503698
 
               7 O7            8 O8            9 O9           10 O10          11 H11          12 H12   
    7 O7       0.000000
    8 O8       5.059890        0.000000
    9 O9       3.107889        3.109683        0.000000
   10 O10      3.097660        3.048391        3.551057        0.000000
   11 H11      6.943358        2.843016        5.727563        4.124734        0.000000
   12 H12      5.437377        2.731767        4.913905        2.557819        1.801930        0.000000
   13 H13      6.616837        3.534894        5.728167        4.124869        1.794430        1.801870
 
              13 H13   
   13 H13      0.000000
 
                    ************************************** 
                    *    Valence Bond Angles / Degree    * 
                    ************************************** 
                          Atom centers                 Phi
                     11 H11      1 C1      12 H12      111.41
                     11 H11      1 C1      13 H13      110.73
                     12 H12      1 C1      13 H13      111.40
                      3 O3       2 S2       8 O8       106.56
                      5 O5       6 S6       7 O7       107.92
--
 
 
            Nuclear Potential Energy           2276.74376528 au
 
--- Stop Module: gateway at Sat Nov 17 18:30:17 2018 /rc=_RC_ALL_IS_WELL_ ---
*** files: NpO2_CH3SO2_SO2-m1-doublet.casscf.MB.RICDLib xmldump
    saved to directory /home/vallet/John-methylsulfonyl/NpO2_CH3SO2_SO2-m1/doublet-geom/optg-freq-pbe0/SO-XMS
--- Module gateway spent 50 seconds ---

>>> COPY NpO2_CH3SO2_SO2-m1-doublet.casscf.MB.RunFile /home/vallet/John-methylsulfonyl/NpO2_CH3SO2_SO2-m1/doublet-geom/optg-freq-pbe0/SO-XMS

--- Start Module: seward at Sat Nov 17 18:30:17 2018 ---
 
()()()()()()()()()()()()()()()()()()()()()()()()()()()()()()()()()()()()()()()()()()()()()()()()()()

                                              &SEWARD

                                   only a single process is used
                       available to each process: 16 GB of memory, 8 threads
()()()()()()()()()()()()()()()()()()()()()()()()()()()()()()()()()()()()()()()()()()()()()()()()()()
 
               SEWARD will generate:
                  Multipole Moment integrals up to order  2
                  Kinetic Energy integrals
                  Nuclear Attraction integrals (point charge)
                  One-Electron Hamiltonian integrals
                  Velocity integrals
                  Relativistic Douglas-Kroll-Hess integrals:
                    - Parametrization         : EXP
                    - DKH order of Hamiltonian: 2
                    - DKH order of Properties : 0
                         - multipole moment operators
                         - electric potential operators
                         - contact operators
                  Orbital angular momentum around ( 0.0000  0.0000  0.0000 )
                  Atomic mean-field integrals
                  RI decomposed two-electron repulsion integrals stored Cholesky style
                   - acCD auxiliary basis
                   - CD Threshold:   0.10E-03
 
                   Integrals are discarded if absolute value <: 0.10E-13
                   Integral cutoff threshold is set to       <: 0.10E-15
 
            Nuclear Potential Energy           2276.74376528 au
 
 
      Basis set specifications :
      Symmetry species         a  
      Basis functions          115
 
 
  Input file to MOLDEN was generated!
 
--- Stop Module: seward at Sat Nov 17 18:30:31 2018 /rc=_RC_ALL_IS_WELL_ ---
*** files: NpO2_CH3SO2_SO2-m1-doublet.casscf.MB.GssOrb NpO2_CH3SO2_SO2-m1-doublet.casscf.MB.guessorb.h5 NpO2_CH3SO2_SO2-m1-doublet.casscf.MB.guessorb.molden xmldump
    saved to directory /home/vallet/John-methylsulfonyl/NpO2_CH3SO2_SO2-m1/doublet-geom/optg-freq-pbe0/SO-XMS
--- Module seward spent 14 seconds ---

*** symbolic link created: INPORB -> NpO2_CH3SO2_SO2-m1-doublet.casscf.MB.GssOrb
--- Start Module: rasscf at Sat Nov 17 18:30:32 2018 ---
 
()()()()()()()()()()()()()()()()()()()()()()()()()()()()()()()()()()()()()()()()()()()()()()()()()()

                                              &RASSCF

                                   only a single process is used
                       available to each process: 16 GB of memory, 8 threads
()()()()()()()()()()()()()()()()()()()()()()()()()()()()()()()()()()()()()()()()()()()()()()()()()()
 
 
      Header of the ONEINT file:
      --------------------------
      
      Integrals generated by seward 4.2.0  , Sat Nov 17 18:30:18 2018
 
 
      OrdInt status: non-squared
 
 
      Cartesian coordinates in Angstrom:
      -----------------------------------------------------
      No.  Label        X            Y            Z        
      -----------------------------------------------------
       1   C1         1.51376000   3.06967000  -1.99256000
       2   S2         1.36847000   2.77682000  -0.20718000
       3   O3        -0.13429000   2.50795000  -0.06242000
       4   NP4        0.00000000   0.00000000   0.00000000
       5   O5         0.12521000  -2.54487000  -0.00528000
       6   S6        -1.38124000  -2.80501000  -0.04281000
       7   O7        -2.09340000  -1.45219000  -0.00773000
       8   O8         2.07091000   1.42151000  -0.06114000
       9   O9         0.00000000   0.00000000   1.77210000
      10   O10       -0.00341000  -0.00643000  -1.77895000
      11   H11        2.57073000   3.18404000  -2.23517000
      12   H12        1.08384000   2.19783000  -2.48716000
      13   H13        0.96145000   3.97789000  -2.23588000
      -----------------------------------------------------
      Nuclear repulsion energy = 2276.74376528
 
++    Wave function specifications:
      -----------------------------
 
      Number of closed shell electrons         180
      Number of electrons in active shells       3
      Max number of holes in RAS1 space          0
      Max nr of electrons in RAS3 space          0
      Number of inactive orbitals               90
      Number of active orbitals                  5
      Number of secondary orbitals              20
      Spin quantum number                      1.5
      State symmetry                             1
--
 
++    Orbital specifications:
      -----------------------
 
      Symmetry species                           1
                                                 a
      Frozen orbitals                            0
      Inactive orbitals                         90
      Active orbitals                            5
      RAS1 orbitals                              0
      RAS2 orbitals                              5
      RAS3 orbitals                              0
      Secondary orbitals                        20
      Deleted orbitals                           0
      Number of basis functions                115
--
 
++    CI expansion specifications:
      ----------------------------
 
      Number of CSFs                            10
      Number of determinants                    10
      Number of root(s) required                 6
      Root chosen for geometry opt.              6
      CI roots used                              1     2     3     4     5     6
      weights                                0.167 0.167 0.167 0.167 0.167 0.167
      highest root included in the CI            6
      max. size of the explicit Hamiltonian     10
--
 
++    Optimization specifications:
      ----------------------------
 
      RASSCF algorithm: LK RI/DF
      Maximum number of macro iterations       200
      Maximum number of SX iterations          100
      Threshold for RASSCF energy            0.100E-07
      Threshold for max MO rotation          0.100E+00
      Threshold for max BLB element          0.100E-03
      Level shift parameter                  0.500E+00
      Make Quasi-Newton update
--
 
      Orbitals from runfile: guessorb orbitals
      The MO-coefficients are taken from guessorb on runfile
 
      Total molecular charge   -1.00
 
      ************************************************************************************************************************
      *                                                                                                                      *
      *                                            Wave function control section                                             *
      *                                                                                                                      *
      ************************************************************************************************************************
 
 
                                         RASSCF iterations: Energy and convergence statistics
                                         ----------------------------------------------------
 
      Iter CI   SX   CI       RASSCF       Energy    max ROT     max BLB   max BLB  Level Ln srch  Step   QN   Walltime
          iter iter root      energy       change     param      element    value   shift minimum  type update hh:mm:ss
 Nr of preliminary CI iterations:   1
      Total energies have been shifted. Add               -30000.00 au
        1   1  100    0   -19.77062751    0.00E+00  -0.18E+00*  94  96 1 -0.62E+00*  1.71   0.00    SX    NO    0:00:02
        2   1  100    0   -20.89826352   -0.11E+01* -0.12E+00*  94  96 1 -0.33E+00*  1.42   0.00    SX    NO    0:00:01
        3   1  100    0   -21.43660145   -0.54E+00* -0.69E-01   94  96 1 -0.17E+00*  1.27   0.00    SX    NO    0:00:01
        4   1  100    0   -21.67479685   -0.24E+00* -0.43E-01   79 107 1 -0.11E+00*  1.19   0.00    SX    NO    0:00:01
        5   1  100    0   -21.78067737   -0.11E+00* -0.44E-01   86 111 1  0.67E-01*  1.14   2.50    LS   YES    0:00:01
        6   1   10    0   -21.84374264   -0.63E-01* -0.66E-01   88  98 1 -0.53E-01*  1.10   1.82    QN   YES    0:00:01
        7   1   10    0   -21.88186957   -0.38E-01* -0.10E+00*  90  97 1  0.61E-01*  1.04   2.15    QN   YES    0:00:01
        8   1   20    0   -21.91952329   -0.38E-01* -0.13E+00*  90  97 1  0.74E-01*  0.96   1.97    QN   YES    0:00:01
        9   1   64    0   -21.95606627   -0.37E-01* -0.14E+00*  90  97 1  0.69E-01*  0.84   1.65    QN   YES    0:00:01
       10   1   15    0   -21.99035426   -0.34E-01* -0.16E+00*  88 113 1  0.61E-01*  0.73   1.79    QN   YES    0:00:01
       11   1   79    0   -22.03392669   -0.44E-01* -0.19E+00*  88  98 1  0.68E-01*  0.63   2.38    QN   YES    0:00:01
       12   1   17    0   -22.09250380   -0.59E-01* -0.20E+00*  86 112 1 -0.66E-01*  0.54   2.50    QN   YES    0:00:01
       13   1   63    0   -22.15383785   -0.61E-01* -0.16E+00*  86 112 1 -0.64E-01*  0.47   2.18    QN   YES    0:00:01
       14   1   26    0   -22.20110473   -0.47E-01*  0.10E+00*  86 112 1 -0.51E-01*  0.50   1.82    QN   YES    0:00:01
       15   1   23    0   -22.23533092   -0.34E-01*  0.91E-01   90  92 1 -0.45E-01*  0.52   2.16    QN   YES    0:00:01
       16   1   10    0   -22.26603194   -0.31E-01*  0.65E-01   90  92 1 -0.47E-01*  0.55   2.02    LS   YES    0:00:01
       17   1   15    0   -22.27632493   -0.10E-01* -0.58E-01   90  92 1 -0.49E-01*  0.57   1.46    QN   YES    0:00:01
       18   1   12    0   -22.28915691   -0.13E-01* -0.12E+00*  90  92 1 -0.41E-01*  0.59   2.50    QN   YES    0:00:01
       19   1    8    0   -22.30804781   -0.19E-01* -0.13E+00*  90  92 1 -0.41E-01*  0.62   1.89    QN   YES    0:00:01
       20   1    8    0   -22.32390038   -0.16E-01*  0.12E+00*  90  92 1 -0.31E-01*  0.62   1.77    QN   YES    0:00:01
       21   1   10    0   -22.33678478   -0.13E-01*  0.14E+00*  90  94 1  0.35E-01*  0.58   1.53    QN   YES    0:00:01
       22   1   24    0   -22.35104746   -0.14E-01*  0.20E+00*  90  94 1  0.43E-01*  0.52   1.85    QN   YES    0:00:01
       23   1   62    0   -22.37137964   -0.20E-01*  0.31E+00*  90  94 1  0.53E-01*  0.44   2.50    QN   YES    0:00:01
       24   1    9    0   -22.40654824   -0.35E-01*  0.35E+00*  90  94 1  0.69E-01*  0.40   2.22    QN   YES    0:00:01
       25   1   14    0   -22.42997747   -0.23E-01* -0.56E-01   90  92 1  0.91E-01*  0.41   0.98    QN   YES    0:00:01
       26   1   87    0   -22.45277848   -0.23E-01* -0.10E+00*  90  92 1  0.75E-01*  0.40   2.50    QN   YES    0:00:01
       27   1   23    0   -22.49288816   -0.40E-01* -0.10E+00*  90  92 1  0.64E-01*  0.41   1.62    QN   YES    0:00:01
       28   1   29    0   -22.51742103   -0.25E-01* -0.42E-01   90  92 1  0.26E-01*  0.40   1.47    QN   YES    0:00:01
       29   1    8    0   -22.53076767   -0.13E-01* -0.45E-01   62 100 1  0.19E-01*  0.41   1.62    QN   YES    0:00:01
       30   1    8    0   -22.53794107   -0.72E-02* -0.46E-01   88 113 1 -0.97E-02*  0.41   1.42    QN   YES    0:00:01
       31   1    8    0   -22.53994389   -0.20E-02* -0.42E-01   90  94 1  0.10E-01*  0.41   0.83    QN   YES    0:00:01
       32   1    8    0   -22.54145787   -0.15E-02*  0.45E-01   95  97 1 -0.78E-02*  0.41   1.26    QN   YES    0:00:01
       33   1    8    0   -22.54256947   -0.11E-02*  0.19E+00*  95  97 1 -0.86E-02*  0.40   2.50    QN   YES    0:00:01
       34   1    8    0   -22.54595235   -0.34E-02* -0.27E+00*  95  97 1 -0.11E-01*  0.40   2.24    QN   YES    0:00:01
       35   1    8    0   -22.54958105   -0.36E-02* -0.21E+00*  86  92 1 -0.15E-01*  0.40   1.48    QN   YES    0:00:01
       36   1   14    0   -22.55205668   -0.25E-02*  0.16E+00*  86  92 1 -0.19E-01*  0.40   1.49    QN   YES    0:00:01
       37   1   12    0   -22.55516712   -0.31E-02*  0.16E+00*  86  92 1 -0.19E-01*  0.40   2.30    QN   YES    0:00:01
       38   1    8    0   -22.55999092   -0.48E-02*  0.11E+00*  86  92 1 -0.14E-01*  0.40   1.89    LS   YES    0:00:01
       39   1    8    0   -22.56133694   -0.13E-02*  0.28E-01   86  92 1 -0.10E-01*  0.40   1.33    QN   YES    0:00:01
       40   1    8    0   -22.56301896   -0.17E-02*  0.16E-01   90  96 1  0.56E-02*  0.40   1.67    QN   YES    0:00:01
       41   1    7    0   -22.56378732   -0.77E-03* -0.12E-01   77  96 1 -0.41E-02*  0.40   1.33    QN   YES    0:00:01
       42   1    7    0   -22.56399960   -0.21E-03* -0.12E-01   90  96 1  0.26E-02*  0.40   1.63    QN   YES    0:00:01
       43   1    7    0   -22.56410584   -0.11E-03* -0.87E-02   90  96 1  0.14E-02*  0.40   1.48    QN   YES    0:00:01
       44   1    7    0   -22.56414783   -0.42E-04* -0.76E-02   86  92 1  0.87E-03*  0.40   1.64    QN   YES    0:00:01
       45   1    6    0   -22.56417097   -0.23E-04* -0.55E-02   77  96 1  0.79E-03*  0.40   1.60    QN   YES    0:00:01
       46   1    6    0   -22.56418244   -0.11E-04* -0.32E-02   77  96 1  0.61E-03*  0.40   1.51    QN   YES    0:00:01
       47   1    6    0   -22.56418726   -0.48E-05*  0.16E-02   86  98 1 -0.32E-03*  0.40   1.52    QN   YES    0:00:01
       48   1    6    0   -22.56418922   -0.20E-05*  0.13E-02   79 107 1 -0.18E-03*  0.40   1.80    LS   YES    0:00:01
       49   1    6    0   -22.56418945   -0.23E-06* -0.57E-03   86 112 1  0.21E-03*  0.40   0.69    QN   YES    0:00:01
       50   1    5    0   -22.56419014   -0.69E-06* -0.55E-03   88  96 1 -0.12E-03*  0.40   1.97    LS   YES    0:00:01
       51   1    5    0   -22.56419036   -0.23E-06*  0.60E-03   90  98 1 -0.96E-04   0.40   1.05    QN   YES    0:00:01
       52   1    5    0   -22.56419058   -0.21E-06*  0.83E-03   90  96 1 -0.59E-04   0.40   2.39    LS   YES    0:00:01
       53   1    5    0   -22.56419061   -0.31E-07*  0.11E-03   80  97 1 -0.10E-03*  0.40   0.58    QN   YES    0:00:01
       54   1    5    0   -22.56419072   -0.11E-06* -0.21E-03   90  96 1 -0.44E-04   0.40   1.25    QN   YES    0:00:01
       55   1    5    0   -22.56419077   -0.48E-07* -0.32E-03   90  96 1 -0.30E-04   0.40   2.50    LS   YES    0:00:01
       56   1    5    0   -22.56419073    0.34E-07* -0.16E-03   86 103 1  0.78E-04   0.40   0.28    LS   YES    0:00:01
       57   1    5    0   -22.56419078   -0.43E-07*  0.17E-03   67 113 1  0.48E-04   0.40   1.14    QN   YES    0:00:01
       58   1    5    0   -22.56419080   -0.24E-07*  0.25E-03   67 113 1  0.26E-04   0.40   2.50    LS   YES    0:00:01
       59   1    4    0   -22.56419080   -0.31E-09   0.12E-03   86  98 1  0.29E-04   0.40   0.41    QN   YES    0:00:01
      Convergence after 59 iterations
       60   1    4    0   -22.56419081   -0.12E-07*  0.12E-03   81  94 1 -0.16E-04   0.40   0.41    QN   YES    0:00:01
 
      ************************************************************************************************************************
                                                      Wave function printout:
                       occupation of active orbitals, and spin coupling of open shells (u,d: Spin up or down)
      ************************************************************************************************************************
 
      Note: transformation to natural orbitals
      has been made, which may change the order of the CSFs.
 
      printout of CI-coefficients larger than  0.05 for root  1
      energy=  -30022.592156
      conf/sym  11111     Coeff  Weight
             2  uu0u0   0.36318 0.13190
             6  u00uu   0.67982 0.46216
             7  0uuu0   0.48857 0.23870
            10  00uuu   0.40895 0.16724
 
      printout of CI-coefficients larger than  0.05 for root  2
      energy=  -30022.591776
      conf/sym  11111     Coeff  Weight
             4  u0uu0   0.62071 0.38528
             9  0u0uu  -0.78403 0.61470
 
      printout of CI-coefficients larger than  0.05 for root  3
      energy=  -30022.584163
      conf/sym  11111     Coeff  Weight
             2  uu0u0  -0.86803 0.75348
             6  u00uu   0.07169 0.00514
             7  0uuu0   0.15540 0.02415
            10  00uuu   0.46604 0.21719
 
      printout of CI-coefficients larger than  0.05 for root  4
      energy=  -30022.561166
      conf/sym  11111     Coeff  Weight
             4  u0uu0   0.78402 0.61469
             9  0u0uu   0.62071 0.38528
 
      printout of CI-coefficients larger than  0.05 for root  5
      energy=  -30022.554957
      conf/sym  11111     Coeff  Weight
             2  uu0u0   0.09630 0.00927
             6  u00uu  -0.62005 0.38446
             7  0uuu0   0.77848 0.60604
 
      printout of CI-coefficients larger than  0.05 for root  6
      energy=  -30022.500927
      conf/sym  11111     Coeff  Weight
             2  uu0u0   0.32452 0.10531
             6  u00uu  -0.38502 0.14824
             7  0uuu0  -0.36209 0.13111
            10  00uuu   0.78442 0.61531
 
      Natural orbitals and occupation numbers for root  1
      sym 1:   0.637702   0.362298   0.362298   1.000000   0.637702
 
      Natural orbitals and occupation numbers for root  2
      sym 1:   0.385290   0.614710   0.385290   1.000000   0.614710
 
      Natural orbitals and occupation numbers for root  3
      sym 1:   0.808594   0.808594   0.191406   1.000000   0.191406
 
      Natural orbitals and occupation numbers for root  4
      sym 1:   0.614709   0.385291   0.614709   1.000000   0.385291
 
      Natural orbitals and occupation numbers for root  5
      sym 1:   0.364313   0.635687   0.635687   1.000000   0.364313
 
      Natural orbitals and occupation numbers for root  6
      sym 1:   0.192138   0.192138   0.807862   1.000000   0.807862
 
      ************************************************************************************************************************
      *                                                                                                                      *
      *                                                    Final results                                                     *
      *                                                                                                                      *
      ************************************************************************************************************************
 
 
++    Wave function specifications:
      -----------------------------
 
      Number of closed shell electrons         180
      Number of electrons in active shells       3
      Max number of holes in RAS1 space          0
      Max nr of electrons in RAS3 space          0
      Number of inactive orbitals               90
      Number of active orbitals                  5
      Number of secondary orbitals              20
      Spin quantum number                      1.5
      State symmetry                             1
--
 
++    Orbital specifications:
      -----------------------
 
      Symmetry species                           1
                                                 a
      Frozen orbitals                            0
      Inactive orbitals                         90
      Active orbitals                            5
      RAS1 orbitals                              0
      RAS2 orbitals                              5
      RAS3 orbitals                              0
      Secondary orbitals                        20
      Deleted orbitals                           0
      Number of basis functions                115
--
 
++    CI expansion specifications:
      ----------------------------
 
      Number of CSFs                            10
      Number of determinants                    10
      Number of root(s) required                 6
      CI roots used                              1     2     3     4     5     6
      weights                                0.167 0.167 0.167 0.167 0.167 0.167
      highest root included in the CI            6
      Root passed to geometry opt.               6
--
 
++    Final optimization conditions:
      ------------------------------
 
      Average CI energy                          -30022.56419081
      RASSCF energy for state  6                 -30022.50092673
      Super-CI energy                                -0.00000000
      RASSCF energy change                           -0.00000001
      Max change in MO coefficients              -0.133E-03
      Max non-diagonal density matrix element     0.116E-03
      Maximum BLB matrix element                 -0.156E-04
      (orbital pair  81,  94 in symmetry   1)
      Norm of electronic gradient            0.594E-01
--
 
 
      Final state energy(ies):
      ------------------------
 
::    RASSCF root number  1 Total energy: -30022.59215609
::    RASSCF root number  2 Total energy: -30022.59177582
::    RASSCF root number  3 Total energy: -30022.58416293
::    RASSCF root number  4 Total energy: -30022.56116624
::    RASSCF root number  5 Total energy: -30022.55495706
::    RASSCF root number  6 Total energy: -30022.50092673
 
++    Molecular orbitals:
      -------------------
 
      Pseudonatural active orbitals and approximate occupation numbers
 
 
 
 
      Molecular orbitals for symmetry species 1: a  
 
 
      Orbital                1         2         3         4         5         6         7         8         9        10
      Energy        -4373.2202 -828.8982 -693.2442 -693.2437 -693.2435 -213.3192 -175.0470 -175.0465 -175.0427 -139.4055
      Occ. No.          2.0000    2.0000    2.0000    2.0000    2.0000    2.0000    2.0000    2.0000    2.0000    2.0000
 
    1 C1     1s        -0.0000   -0.0000    0.0000   -0.0000   -0.0000   -0.0000   -0.0000   -0.0000    0.0000    0.0000
    2 C1     2s        -0.0000   -0.0000    0.0000    0.0000    0.0000   -0.0000    0.0000    0.0000    0.0000    0.0000
    3 C1     2px        0.0000    0.0000    0.0000   -0.0000    0.0000    0.0000   -0.0000    0.0000    0.0000    0.0000
    4 C1     2py        0.0000    0.0000    0.0000   -0.0000   -0.0000    0.0000   -0.0000   -0.0000    0.0000    0.0000
    5 C1     2pz       -0.0000   -0.0000   -0.0000    0.0000    0.0000   -0.0000    0.0000    0.0000   -0.0000   -0.0000
    6 S2     1s        -0.0000   -0.0000   -0.0000    0.0000    0.0000   -0.0000    0.0000    0.0000   -0.0000   -0.0000
    7 S2     2s        -0.0000   -0.0000   -0.0000    0.0000    0.0000   -0.0000    0.0000    0.0000   -0.0000   -0.0000
    8 S2     3s        -0.0000   -0.0000    0.0000    0.0000    0.0000   -0.0000    0.0000    0.0000    0.0000   -0.0000
    9 S2     2px       -0.0000   -0.0000    0.0000   -0.0000    0.0000   -0.0000   -0.0000    0.0000    0.0000    0.0000
   10 S2     3px       -0.0000   -0.0000   -0.0000   -0.0000   -0.0000   -0.0000   -0.0000   -0.0000   -0.0000    0.0000
   11 S2     2py       -0.0000   -0.0000    0.0000   -0.0000   -0.0000   -0.0000   -0.0000   -0.0000    0.0000    0.0000
   12 S2     3py       -0.0000   -0.0000   -0.0000   -0.0000    0.0000   -0.0000   -0.0000    0.0000   -0.0000    0.0000
   13 S2     2pz       -0.0000   -0.0000    0.0000    0.0000    0.0000   -0.0000    0.0000   -0.0000    0.0000   -0.0000
   14 S2     3pz       -0.0000   -0.0000    0.0000    0.0000   -0.0000   -0.0000    0.0000   -0.0000    0.0000   -0.0000
   15 O3     1s         0.0000    0.0000   -0.0000    0.0000   -0.0000    0.0000    0.0000   -0.0000   -0.0000   -0.0000
   16 O3     2s         0.0000    0.0000    0.0000    0.0000   -0.0000    0.0000    0.0000   -0.0000    0.0000   -0.0000
   17 O3     2px        0.0000    0.0000    0.0000   -0.0000    0.0000    0.0000   -0.0000    0.0000    0.0000   -0.0000
   18 O3     2py       -0.0000   -0.0000   -0.0000    0.0000   -0.0000   -0.0000    0.0000   -0.0000   -0.0000   -0.0000
   19 O3     2pz        0.0000    0.0000    0.0000    0.0000    0.0000    0.0000    0.0000    0.0000    0.0000   -0.0000
   20 NP4    1s         1.0000   -0.0000   -0.0000    0.0000    0.0000    0.0000   -0.0000   -0.0000    0.0000   -0.0000
   21 NP4    2s         0.0000    1.0000   -0.0000   -0.0000    0.0000   -0.0000   -0.0000    0.0000   -0.0000    0.0000
   22 NP4    3s        -0.0000    0.0000    0.0000   -0.0000   -0.0000    1.0000   -0.0000    0.0000   -0.0000    0.0000
   23 NP4    4s         0.0000   -0.0000   -0.0000    0.0000    0.0000   -0.0000   -0.0000   -0.0000    0.0000   -0.0000
   24 NP4    5s        -0.0000    0.0000    0.0000   -0.0000   -0.0000    0.0000    0.0000    0.0000   -0.0000    0.0000
   25 NP4    6s         0.0000   -0.0000   -0.0000    0.0000   -0.0000    0.0000   -0.0000   -0.0000    0.0000   -0.0000
   26 NP4    7s        -0.0000   -0.0000   -0.0000    0.0000   -0.0000   -0.0000    0.0000   -0.0000   -0.0000    0.0000
   27 NP4    2px       -0.0000    0.0000    0.0055    0.4414    0.8973    0.0000   -0.0000   -0.0000   -0.0000    0.0000
   28 NP4    3px        0.0000    0.0000    0.0000    0.0000    0.0000    0.0000    0.4420    0.8970   -0.0011    0.0000
   29 NP4    4px       -0.0000    0.0000   -0.0000   -0.0000   -0.0000   -0.0000   -0.0000   -0.0000    0.0000   -0.0000
   30 NP4    5px        0.0000   -0.0000    0.0000    0.0000    0.0000    0.0000    0.0000    0.0000   -0.0000    0.0000
   31 NP4    6px       -0.0000   -0.0000   -0.0000   -0.0000   -0.0000   -0.0000   -0.0000   -0.0000    0.0000   -0.0000
   32 NP4    7px        0.0000    0.0000   -0.0000   -0.0000    0.0000    0.0000    0.0000    0.0000   -0.0000    0.0000
   33 NP4    2py       -0.0000    0.0000    0.0107    0.8972   -0.4414    0.0000   -0.0000    0.0000   -0.0000    0.0000
   34 NP4    3py        0.0000    0.0000    0.0000    0.0000   -0.0000    0.0000    0.8970   -0.4420   -0.0021    0.0000
   35 NP4    4py       -0.0000    0.0000   -0.0000   -0.0000    0.0000   -0.0000   -0.0000    0.0000    0.0000   -0.0000
   36 NP4    5py        0.0000   -0.0000    0.0000    0.0000   -0.0000    0.0000    0.0000   -0.0000   -0.0000    0.0000
   37 NP4    6py       -0.0000   -0.0000   -0.0000   -0.0000    0.0000   -0.0000   -0.0000    0.0000    0.0000   -0.0000
   38 NP4    7py        0.0000    0.0000   -0.0000   -0.0000   -0.0000    0.0000    0.0000   -0.0000   -0.0000    0.0000
   39 NP4    2pz        0.0000    0.0000    0.9999   -0.0120   -0.0003   -0.0000   -0.0000   -0.0000   -0.0000   -0.0000
   40 NP4    3pz       -0.0000    0.0000    0.0000   -0.0000   -0.0000    0.0000    0.0023    0.0001    1.0000   -0.0000
   41 NP4    4pz        0.0000   -0.0000   -0.0000    0.0000    0.0000    0.0000    0.0000   -0.0000   -0.0000    0.0000
   42 NP4    5pz       -0.0000    0.0000    0.0000   -0.0000   -0.0000   -0.0000   -0.0000    0.0000    0.0000    0.0000
   43 NP4    6pz        0.0000   -0.0000    0.0000    0.0000    0.0000    0.0000    0.0000    0.0000    0.0000   -0.0000
   44 NP4    7pz       -0.0000   -0.0000    0.0000    0.0000   -0.0000   -0.0000    0.0000    0.0000    0.0000   -0.0000
   45 NP4    3d2-      -0.0000    0.0000   -0.0000    0.0000    0.0000    0.0000    0.0000    0.0000   -0.0000   -0.7927
   46 NP4    4d2-       0.0000   -0.0000   -0.0000   -0.0000   -0.0000    0.0000    0.0000    0.0000   -0.0000    0.0000
   47 NP4    5d2-      -0.0000    0.0000    0.0000    0.0000    0.0000   -0.0000   -0.0000   -0.0000   -0.0000   -0.0000
   48 NP4    6d2-      -0.0000   -0.0000    0.0000    0.0000    0.0000   -0.0000    0.0000    0.0000   -0.0000   -0.0000
   49 NP4    3d1-       0.0000    0.0000    0.0000    0.0000   -0.0000    0.0000    0.0000   -0.0000    0.0000   -0.0041
   50 NP4    4d1-      -0.0000   -0.0000   -0.0000   -0.0000    0.0000    0.0000    0.0000   -0.0000    0.0000    0.0000
   51 NP4    5d1-       0.0000    0.0000    0.0000    0.0000   -0.0000   -0.0000   -0.0000    0.0000   -0.0000   -0.0000
   52 NP4    6d1-      -0.0000   -0.0000   -0.0000    0.0000    0.0000   -0.0000    0.0000   -0.0000    0.0000   -0.0000
   53 NP4    3d0        0.0000   -0.0000    0.0000   -0.0000   -0.0000   -0.0000   -0.0000    0.0000    0.0000   -0.0078
   54 NP4    4d0       -0.0000   -0.0000   -0.0000    0.0000   -0.0000   -0.0000   -0.0000    0.0000    0.0000   -0.0000
   55 NP4    5d0       -0.0000    0.0000    0.0000   -0.0000    0.0000   -0.0000    0.0000   -0.0000   -0.0000    0.0000
   56 NP4    6d0        0.0000    0.0000   -0.0000   -0.0000    0.0000    0.0000   -0.0000    0.0000    0.0000   -0.0000
   57 NP4    3d1+       0.0000    0.0000    0.0000    0.0000    0.0000    0.0000    0.0000    0.0000    0.0000   -0.0020
   58 NP4    4d1+      -0.0000   -0.0000   -0.0000   -0.0000   -0.0000    0.0000    0.0000    0.0000    0.0000    0.0000
   59 NP4    5d1+       0.0000    0.0000    0.0000    0.0000    0.0000   -0.0000   -0.0000   -0.0000   -0.0000   -0.0000
   60 NP4    6d1+      -0.0000   -0.0000   -0.0000    0.0000   -0.0000   -0.0000    0.0000    0.0000    0.0000   -0.0000
   61 NP4    3d2+       0.0000   -0.0000    0.0000   -0.0000    0.0000   -0.0000   -0.0000    0.0000    0.0000    0.6095
   62 NP4    4d2+      -0.0000    0.0000    0.0000    0.0000   -0.0000   -0.0000   -0.0000    0.0000    0.0000   -0.0000
   63 NP4    5d2+       0.0000   -0.0000   -0.0000   -0.0000    0.0000    0.0000    0.0000   -0.0000    0.0000    0.0000
   64 NP4    6d2+       0.0000    0.0000   -0.0000   -0.0000    0.0000    0.0000   -0.0000    0.0000    0.0000    0.0000
   65 NP4    4f3-       0.0000   -0.0000   -0.0000   -0.0000   -0.0000   -0.0000   -0.0000    0.0000    0.0000    0.0000
   66 NP4    5f3-      -0.0000   -0.0000    0.0000    0.0000    0.0000    0.0000    0.0000   -0.0000   -0.0000   -0.0000
   67 NP4    4f2-       0.0000   -0.0000    0.0000    0.0000    0.0000   -0.0000    0.0000    0.0000    0.0000   -0.0000
   68 NP4    5f2-       0.0000    0.0000   -0.0000    0.0000   -0.0000    0.0000   -0.0000   -0.0000   -0.0000    0.0000
   69 NP4    4f1-      -0.0000   -0.0000    0.0000   -0.0000    0.0000    0.0000   -0.0000    0.0000    0.0000    0.0000
   70 NP4    5f1-       0.0000    0.0000    0.0000    0.0000   -0.0000    0.0000    0.0000   -0.0000   -0.0000   -0.0000
   71 NP4    4f0       -0.0000    0.0000   -0.0000   -0.0000    0.0000    0.0000   -0.0000   -0.0000   -0.0000   -0.0000
   72 NP4    5f0       -0.0000   -0.0000    0.0000    0.0000   -0.0000   -0.0000    0.0000    0.0000    0.0000    0.0000
   73 NP4    4f1+      -0.0000   -0.0000    0.0000   -0.0000   -0.0000    0.0000   -0.0000   -0.0000    0.0000    0.0000
   74 NP4    5f1+       0.0000    0.0000    0.0000    0.0000    0.0000    0.0000    0.0000    0.0000   -0.0000   -0.0000
   75 NP4    4f2+      -0.0000    0.0000   -0.0000   -0.0000    0.0000    0.0000   -0.0000    0.0000   -0.0000    0.0000
   76 NP4    5f2+      -0.0000   -0.0000    0.0000   -0.0000   -0.0000   -0.0000    0.0000   -0.0000    0.0000   -0.0000
   77 NP4    4f3+       0.0000   -0.0000   -0.0000   -0.0000    0.0000   -0.0000   -0.0000   -0.0000    0.0000    0.0000
   78 NP4    5f3+      -0.0000   -0.0000    0.0000    0.0000   -0.0000   -0.0000    0.0000    0.0000   -0.0000   -0.0000
   79 O5     1s         0.0000    0.0000   -0.0000   -0.0000    0.0000    0.0000   -0.0000    0.0000    0.0000   -0.0000
   80 O5     2s         0.0000    0.0000   -0.0000   -0.0000    0.0000    0.0000   -0.0000    0.0000    0.0000   -0.0000
   81 O5     2px       -0.0000   -0.0000   -0.0000   -0.0000    0.0000   -0.0000   -0.0000    0.0000   -0.0000    0.0000
   82 O5     2py        0.0000    0.0000    0.0000    0.0000   -0.0000    0.0000    0.0000   -0.0000    0.0000    0.0000
   83 O5     2pz        0.0000    0.0000    0.0000   -0.0000   -0.0000    0.0000   -0.0000   -0.0000    0.0000   -0.0000
   84 S6     1s        -0.0000   -0.0000   -0.0000   -0.0000   -0.0000   -0.0000   -0.0000    0.0000   -0.0000   -0.0000
   85 S6     2s        -0.0000   -0.0000   -0.0000   -0.0000   -0.0000   -0.0000   -0.0000    0.0000   -0.0000   -0.0000
   86 S6     3s        -0.0000   -0.0000   -0.0000   -0.0000   -0.0000   -0.0000   -0.0000    0.0000   -0.0000   -0.0000
   87 S6     2px        0.0000    0.0000   -0.0000   -0.0000    0.0000    0.0000   -0.0000    0.0000   -0.0000   -0.0000
   88 S6     3px        0.0000    0.0000   -0.0000   -0.0000   -0.0000    0.0000   -0.0000   -0.0000   -0.0000   -0.0000
   89 S6     2py        0.0000    0.0000   -0.0000   -0.0000   -0.0000    0.0000   -0.0000   -0.0000   -0.0000   -0.0000
   90 S6     3py        0.0000    0.0000   -0.0000   -0.0000    0.0000    0.0000   -0.0000    0.0000   -0.0000   -0.0000
   91 S6     2pz        0.0000    0.0000    0.0000   -0.0000   -0.0000    0.0000   -0.0000   -0.0000    0.0000   -0.0000
   92 S6     3pz        0.0000    0.0000    0.0000   -0.0000   -0.0000    0.0000   -0.0000   -0.0000    0.0000   -0.0000
   93 O7     1s         0.0000    0.0000   -0.0000   -0.0000   -0.0000    0.0000   -0.0000   -0.0000    0.0000   -0.0000
   94 O7     2s         0.0000    0.0000   -0.0000   -0.0000   -0.0000    0.0000   -0.0000   -0.0000    0.0000   -0.0000
   95 O7     2px        0.0000    0.0000    0.0000    0.0000    0.0000    0.0000    0.0000    0.0000    0.0000    0.0000
   96 O7     2py        0.0000    0.0000    0.0000    0.0000    0.0000    0.0000    0.0000    0.0000    0.0000    0.0000
   97 O7     2pz        0.0000    0.0000    0.0000   -0.0000    0.0000    0.0000   -0.0000    0.0000    0.0000   -0.0000
   98 O8     1s         0.0000    0.0000   -0.0000    0.0000    0.0000    0.0000    0.0000    0.0000   -0.0000   -0.0000
   99 O8     2s         0.0000    0.0000    0.0000    0.0000    0.0000    0.0000    0.0000    0.0000    0.0000   -0.0000
  100 O8     2px       -0.0000   -0.0000   -0.0000    0.0000    0.0000   -0.0000    0.0000    0.0000   -0.0000   -0.0000
  101 O8     2py       -0.0000   -0.0000   -0.0000    0.0000    0.0000   -0.0000    0.0000    0.0000   -0.0000   -0.0000
  102 O8     2pz        0.0000    0.0000    0.0000    0.0000   -0.0000    0.0000    0.0000   -0.0000    0.0000   -0.0000
  103 O9     1s         0.0000    0.0000   -0.0000    0.0000    0.0000    0.0000   -0.0000   -0.0000   -0.0000    0.0000
  104 O9     2s        -0.0000    0.0000   -0.0000    0.0000    0.0000   -0.0000   -0.0000   -0.0000   -0.0000    0.0000
  105 O9     2px        0.0000   -0.0000    0.0000   -0.0000   -0.0000    0.0000   -0.0000   -0.0000    0.0000    0.0000
  106 O9     2py        0.0000   -0.0000    0.0000   -0.0000    0.0000    0.0000   -0.0000    0.0000    0.0000    0.0000
  107 O9     2pz        0.0000    0.0000    0.0000   -0.0000   -0.0000    0.0000   -0.0000    0.0000    0.0000   -0.0000
  108 O10    1s         0.0000    0.0000    0.0000    0.0000   -0.0000    0.0000    0.0000    0.0000    0.0000    0.0000
  109 O10    2s        -0.0000    0.0000    0.0000    0.0000   -0.0000   -0.0000    0.0000    0.0000    0.0000    0.0000
  110 O10    2px        0.0000    0.0000    0.0000   -0.0000   -0.0000    0.0000   -0.0000   -0.0000    0.0000   -0.0000
  111 O10    2py        0.0000    0.0000    0.0000   -0.0000    0.0000    0.0000   -0.0000    0.0000    0.0000   -0.0000
  112 O10    2pz       -0.0000   -0.0000    0.0000    0.0000    0.0000   -0.0000    0.0000    0.0000    0.0000    0.0000
  113 H11    1s         0.0000    0.0000    0.0000   -0.0000   -0.0000    0.0000   -0.0000   -0.0000    0.0000    0.0000
  114 H12    1s        -0.0000   -0.0000   -0.0000    0.0000    0.0000   -0.0000    0.0000    0.0000   -0.0000   -0.0000
  115 H13    1s         0.0000    0.0000    0.0000   -0.0000    0.0000    0.0000   -0.0000    0.0000    0.0000    0.0000
 
 
      Orbital               11        12        13        14        15        16        17        18        19        20
      Energy         -139.4053 -139.4043 -139.4041 -139.4033  -92.4043  -92.3381  -56.4506  -43.6817  -43.6810  -43.6758
      Occ. No.          2.0000    2.0000    2.0000    2.0000    2.0000    2.0000    2.0000    2.0000    2.0000    2.0000
 
    1 C1     1s        -0.0000    0.0000   -0.0000    0.0000   -0.0000   -0.0000   -0.0000   -0.0000   -0.0000    0.0000
    2 C1     2s        -0.0000    0.0000   -0.0000    0.0000    0.0000   -0.0000   -0.0000    0.0000   -0.0000    0.0000
    3 C1     2px       -0.0000    0.0000   -0.0000   -0.0000   -0.0000    0.0000    0.0000   -0.0000    0.0000    0.0000
    4 C1     2py        0.0000    0.0000    0.0000   -0.0000   -0.0000    0.0000    0.0000   -0.0000   -0.0000    0.0000
    5 C1     2pz        0.0000   -0.0000   -0.0000    0.0000    0.0000   -0.0000   -0.0000    0.0000   -0.0000   -0.0000
    6 S2     1s         0.0000   -0.0000    0.0000    0.0000    1.0000    0.0000   -0.0000    0.0000   -0.0000   -0.0000
    7 S2     2s         0.0000   -0.0000    0.0000    0.0000   -0.0000   -0.0000   -0.0000    0.0000   -0.0000   -0.0000
    8 S2     3s         0.0000   -0.0000    0.0000    0.0000   -0.0004   -0.0000   -0.0000    0.0000   -0.0000   -0.0000
    9 S2     2px        0.0000    0.0000    0.0000    0.0000   -0.0000    0.0000   -0.0000   -0.0000    0.0000    0.0000
   10 S2     3px       -0.0000    0.0000   -0.0000    0.0000    0.0000    0.0000   -0.0000   -0.0000    0.0000    0.0000
   11 S2     2py       -0.0000    0.0000   -0.0000    0.0000   -0.0001    0.0000   -0.0000   -0.0000   -0.0000    0.0000
   12 S2     3py        0.0000    0.0000    0.0000    0.0000    0.0000    0.0000   -0.0000   -0.0000   -0.0000    0.0000
   13 S2     2pz        0.0000    0.0000   -0.0000    0.0000   -0.0001   -0.0000   -0.0000    0.0000   -0.0000    0.0000
   14 S2     3pz       -0.0000    0.0000   -0.0000    0.0000    0.0000   -0.0000   -0.0000    0.0000   -0.0000    0.0000
   15 O3     1s        -0.0000   -0.0000    0.0000    0.0000    0.0000   -0.0000    0.0000    0.0000   -0.0000   -0.0000
   16 O3     2s        -0.0000   -0.0000    0.0000    0.0000    0.0000   -0.0000    0.0000    0.0000   -0.0000   -0.0000
   17 O3     2px        0.0000    0.0000   -0.0000   -0.0000    0.0000    0.0000    0.0000   -0.0000    0.0000    0.0000
   18 O3     2py       -0.0000    0.0000   -0.0000   -0.0000   -0.0000    0.0000   -0.0000    0.0000   -0.0000   -0.0000
   19 O3     2pz       -0.0000    0.0000   -0.0000    0.0000   -0.0000   -0.0000    0.0000    0.0000    0.0000    0.0000
   20 NP4    1s         0.0000   -0.0000   -0.0000   -0.0000   -0.0000   -0.0000   -0.0000    0.0000    0.0000   -0.0000
   21 NP4    2s         0.0000   -0.0000   -0.0000    0.0000   -0.0000   -0.0000    0.0000   -0.0000   -0.0000    0.0000
   22 NP4    3s        -0.0000   -0.0000   -0.0000    0.0000   -0.0000   -0.0000    0.0000    0.0000    0.0000   -0.0000
   23 NP4    4s        -0.0000    0.0000    0.0000    0.0000   -0.0000   -0.0000    1.0000   -0.0000    0.0000   -0.0000
   24 NP4    5s         0.0000   -0.0000   -0.0000   -0.0000   -0.0000   -0.0000   -0.0001   -0.0000   -0.0000    0.0000
   25 NP4    6s        -0.0000    0.0000    0.0000    0.0000   -0.0000   -0.0000    0.0000    0.0000    0.0000   -0.0000
   26 NP4    7s         0.0000    0.0000   -0.0000   -0.0000   -0.0000   -0.0000   -0.0000   -0.0000   -0.0000    0.0000
   27 NP4    2px       -0.0000   -0.0000   -0.0000    0.0000   -0.0000    0.0000   -0.0000    0.0000    0.0000    0.0000
   28 NP4    3px       -0.0000   -0.0000   -0.0000    0.0000   -0.0000    0.0000    0.0000    0.0000    0.0000   -0.0000
   29 NP4    4px        0.0000    0.0000    0.0000   -0.0000   -0.0000    0.0000    0.0000    0.4423    0.8969   -0.0022
   30 NP4    5px       -0.0000   -0.0000   -0.0000    0.0000   -0.0000    0.0000   -0.0000   -0.0001   -0.0002    0.0000
   31 NP4    6px        0.0000    0.0000   -0.0000   -0.0000   -0.0000    0.0000    0.0000    0.0000    0.0000   -0.0000
   32 NP4    7px       -0.0000    0.0000    0.0000    0.0000   -0.0000    0.0000   -0.0000   -0.0000   -0.0000    0.0000
   33 NP4    2py        0.0000   -0.0000    0.0000    0.0000   -0.0000    0.0000   -0.0000    0.0000   -0.0000    0.0000
   34 NP4    3py        0.0000   -0.0000    0.0000    0.0000   -0.0000    0.0000    0.0000    0.0000   -0.0000   -0.0000
   35 NP4    4py       -0.0000    0.0000   -0.0000   -0.0000   -0.0000    0.0000    0.0000    0.8969   -0.4423   -0.0042
   36 NP4    5py        0.0000   -0.0000    0.0000    0.0000   -0.0000    0.0000   -0.0000   -0.0002    0.0001    0.0000
   37 NP4    6py       -0.0000    0.0000    0.0000   -0.0000   -0.0000    0.0000    0.0000    0.0000   -0.0000   -0.0000
   38 NP4    7py        0.0000    0.0000   -0.0000    0.0000   -0.0000    0.0000   -0.0000   -0.0000    0.0000    0.0000
   39 NP4    2pz        0.0000   -0.0000    0.0000   -0.0000    0.0000    0.0000    0.0000    0.0000    0.0000    0.0000
   40 NP4    3pz       -0.0000   -0.0000    0.0000   -0.0000    0.0000    0.0000   -0.0000    0.0000    0.0000    0.0000
   41 NP4    4pz       -0.0000    0.0000   -0.0000    0.0000    0.0000    0.0000    0.0000    0.0047    0.0001    1.0000
   42 NP4    5pz        0.0000    0.0000    0.0000    0.0000    0.0000    0.0000   -0.0000    0.0000    0.0000   -0.0001
   43 NP4    6pz       -0.0000   -0.0000   -0.0000   -0.0000    0.0000    0.0000    0.0000    0.0000    0.0000    0.0000
   44 NP4    7pz        0.0000   -0.0000    0.0000   -0.0000   -0.0000    0.0000   -0.0000    0.0000   -0.0000   -0.0000
   45 NP4    3d2-       0.6095   -0.0036   -0.0071   -0.0062   -0.0000   -0.0000   -0.0000   -0.0000   -0.0000    0.0000
   46 NP4    4d2-      -0.0000    0.0000    0.0000    0.0000   -0.0000   -0.0000    0.0000    0.0000    0.0000   -0.0000
   47 NP4    5d2-       0.0000    0.0000   -0.0000   -0.0000   -0.0000   -0.0000    0.0000    0.0000    0.0000   -0.0000
   48 NP4    6d2-       0.0000    0.0000    0.0000   -0.0000   -0.0000   -0.0000   -0.0000   -0.0000    0.0000    0.0000
   49 NP4    3d1-      -0.0052    0.8968   -0.4423    0.0006    0.0000   -0.0000   -0.0000   -0.0000    0.0000   -0.0000
   50 NP4    4d1-       0.0000   -0.0000    0.0000    0.0000    0.0000   -0.0000    0.0000    0.0000   -0.0000    0.0000
   51 NP4    5d1-      -0.0000    0.0000   -0.0000   -0.0000    0.0000   -0.0000    0.0000   -0.0000    0.0000   -0.0000
   52 NP4    6d1-       0.0000   -0.0000    0.0000    0.0000   -0.0000   -0.0000    0.0000    0.0000   -0.0000   -0.0000
   53 NP4    3d0       -0.0000   -0.0007   -0.0000    1.0000    0.0000    0.0000   -0.0000    0.0000   -0.0000   -0.0000
   54 NP4    4d0       -0.0000    0.0000    0.0000   -0.0000    0.0000    0.0000   -0.0001   -0.0000    0.0000    0.0000
   55 NP4    5d0       -0.0000   -0.0000   -0.0000    0.0000    0.0000    0.0000    0.0001   -0.0000   -0.0000   -0.0000
   56 NP4    6d0        0.0000    0.0000    0.0000    0.0000    0.0000    0.0000    0.0000   -0.0000    0.0000    0.0000
   57 NP4    3d1+       0.0106    0.4423    0.8968    0.0003    0.0000   -0.0000   -0.0000   -0.0000   -0.0000   -0.0000
   58 NP4    4d1+      -0.0000   -0.0000   -0.0000    0.0000    0.0000   -0.0000    0.0000    0.0000    0.0000    0.0000
   59 NP4    5d1+       0.0000    0.0000    0.0000   -0.0000    0.0000   -0.0000    0.0000   -0.0000   -0.0000   -0.0000
   60 NP4    6d1+      -0.0000   -0.0000   -0.0000    0.0000   -0.0000   -0.0000    0.0000    0.0000    0.0000   -0.0000
   61 NP4    3d2+       0.7927    0.0028   -0.0094    0.0048    0.0000    0.0000    0.0000    0.0000   -0.0000   -0.0000
   62 NP4    4d2+      -0.0000   -0.0000    0.0000   -0.0000    0.0000    0.0000   -0.0000   -0.0000    0.0000    0.0000
   63 NP4    5d2+       0.0000   -0.0000   -0.0000    0.0000    0.0000    0.0000   -0.0000   -0.0000    0.0000    0.0000
   64 NP4    6d2+       0.0000   -0.0000    0.0000    0.0000    0.0000    0.0000    0.0000    0.0000    0.0000   -0.0000
   65 NP4    4f3-       0.0000    0.0000   -0.0000    0.0000    0.0000   -0.0000   -0.0000    0.0000    0.0000   -0.0000
   66 NP4    5f3-      -0.0000   -0.0000    0.0000   -0.0000    0.0000   -0.0000   -0.0000   -0.0000   -0.0000    0.0000
   67 NP4    4f2-       0.0000    0.0000    0.0000   -0.0000    0.0000    0.0000   -0.0000    0.0000    0.0000    0.0000
   68 NP4    5f2-      -0.0000   -0.0000   -0.0000    0.0000   -0.0000   -0.0000    0.0000    0.0000    0.0000   -0.0000
   69 NP4    4f1-       0.0000    0.0000   -0.0000    0.0000    0.0000   -0.0000   -0.0000   -0.0000    0.0000    0.0000
   70 NP4    5f1-      -0.0000   -0.0000    0.0000   -0.0000    0.0000   -0.0000    0.0000    0.0000   -0.0000   -0.0000
   71 NP4    4f0       -0.0000   -0.0000    0.0000    0.0000   -0.0000   -0.0000    0.0000   -0.0000   -0.0000    0.0000
   72 NP4    5f0        0.0000    0.0000   -0.0000   -0.0000   -0.0000    0.0000   -0.0000   -0.0000   -0.0000    0.0000
   73 NP4    4f1+      -0.0000    0.0000    0.0000    0.0000    0.0000   -0.0000   -0.0000   -0.0000   -0.0000    0.0000
   74 NP4    5f1+       0.0000   -0.0000   -0.0000   -0.0000    0.0000   -0.0000    0.0000    0.0000    0.0000   -0.0000
   75 NP4    4f2+       0.0000   -0.0000    0.0000    0.0000   -0.0000   -0.0000    0.0000   -0.0000    0.0000   -0.0000
   76 NP4    5f2+      -0.0000    0.0000   -0.0000   -0.0000    0.0000    0.0000   -0.0000   -0.0000    0.0000    0.0000
   77 NP4    4f3+      -0.0000    0.0000    0.0000    0.0000    0.0000   -0.0000   -0.0000    0.0000   -0.0000   -0.0000
   78 NP4    5f3+       0.0000   -0.0000   -0.0000   -0.0000    0.0000   -0.0000   -0.0000   -0.0000    0.0000    0.0000
   79 O5     1s        -0.0000    0.0000    0.0000    0.0000   -0.0000    0.0000    0.0000   -0.0000    0.0000    0.0000
   80 O5     2s        -0.0000    0.0000   -0.0000    0.0000   -0.0000    0.0000    0.0000   -0.0000    0.0000    0.0000
   81 O5     2px       -0.0000    0.0000   -0.0000    0.0000   -0.0000   -0.0000   -0.0000   -0.0000    0.0000   -0.0000
   82 O5     2py        0.0000    0.0000   -0.0000    0.0000   -0.0000    0.0000    0.0000    0.0000   -0.0000   -0.0000
   83 O5     2pz       -0.0000   -0.0000    0.0000    0.0000    0.0000   -0.0000    0.0000   -0.0000    0.0000    0.0000
   84 S6     1s        -0.0000    0.0000    0.0000    0.0000   -0.0000    1.0000   -0.0000   -0.0000    0.0000   -0.0000
   85 S6     2s        -0.0000    0.0000    0.0000    0.0000   -0.0000   -0.0000   -0.0000   -0.0000    0.0000   -0.0000
   86 S6     3s        -0.0000    0.0000    0.0000    0.0000   -0.0000   -0.0004   -0.0000   -0.0000    0.0000    0.0000
   87 S6     2px       -0.0000    0.0000    0.0000   -0.0000   -0.0000    0.0001    0.0000   -0.0000    0.0000   -0.0000
   88 S6     3px        0.0000    0.0000   -0.0000   -0.0000   -0.0000   -0.0000    0.0000   -0.0000    0.0000   -0.0000
   89 S6     2py        0.0000    0.0000   -0.0000   -0.0000   -0.0000    0.0001    0.0000   -0.0000   -0.0000   -0.0000
   90 S6     3py       -0.0000    0.0000    0.0000   -0.0000   -0.0000   -0.0000    0.0000   -0.0000   -0.0000   -0.0000
   91 S6     2pz        0.0000   -0.0000    0.0000    0.0000    0.0000    0.0000    0.0000   -0.0000    0.0000    0.0000
   92 S6     3pz        0.0000   -0.0000    0.0000    0.0000    0.0000   -0.0000    0.0000   -0.0000   -0.0000    0.0000
   93 O7     1s         0.0000    0.0000   -0.0000    0.0000   -0.0000    0.0000    0.0000   -0.0000   -0.0000    0.0000
   94 O7     2s         0.0000    0.0000    0.0000    0.0000   -0.0000    0.0000    0.0000   -0.0000   -0.0000    0.0000
   95 O7     2px       -0.0000    0.0000    0.0000    0.0000   -0.0000    0.0000    0.0000    0.0000    0.0000   -0.0000
   96 O7     2py        0.0000    0.0000    0.0000    0.0000   -0.0000   -0.0000    0.0000    0.0000   -0.0000   -0.0000
   97 O7     2pz       -0.0000   -0.0000   -0.0000    0.0000    0.0000   -0.0000    0.0000   -0.0000   -0.0000    0.0000
   98 O8     1s         0.0000   -0.0000   -0.0000    0.0000    0.0000   -0.0000    0.0000    0.0000    0.0000   -0.0000
   99 O8     2s         0.0000   -0.0000   -0.0000    0.0000    0.0000   -0.0000    0.0000    0.0000    0.0000   -0.0000
  100 O8     2px        0.0000    0.0000    0.0000   -0.0000   -0.0000    0.0000   -0.0000    0.0000    0.0000   -0.0000
  101 O8     2py       -0.0000    0.0000    0.0000   -0.0000    0.0000    0.0000   -0.0000    0.0000    0.0000   -0.0000
  102 O8     2pz        0.0000    0.0000    0.0000    0.0000   -0.0000   -0.0000    0.0000    0.0000   -0.0000    0.0000
  103 O9     1s        -0.0000   -0.0000   -0.0000   -0.0000    0.0000    0.0000    0.0000   -0.0000   -0.0000   -0.0000
  104 O9     2s        -0.0000   -0.0000   -0.0000   -0.0000    0.0000    0.0000    0.0000   -0.0000    0.0000   -0.0000
  105 O9     2px       -0.0000   -0.0000   -0.0000    0.0000    0.0000   -0.0000   -0.0000   -0.0000   -0.0000    0.0000
  106 O9     2py        0.0000   -0.0000    0.0000    0.0000    0.0000   -0.0000   -0.0000   -0.0000    0.0000    0.0000
  107 O9     2pz       -0.0000    0.0000    0.0000    0.0000    0.0000    0.0000    0.0000   -0.0000    0.0000    0.0000
  108 O10    1s         0.0000   -0.0000   -0.0000   -0.0000    0.0000    0.0000    0.0000    0.0000    0.0000    0.0000
  109 O10    2s         0.0000   -0.0000   -0.0000   -0.0000    0.0000    0.0000    0.0000    0.0000    0.0000    0.0000
  110 O10    2px        0.0000    0.0000    0.0000   -0.0000    0.0000   -0.0000    0.0000   -0.0000   -0.0000    0.0000
  111 O10    2py       -0.0000    0.0000   -0.0000   -0.0000    0.0000   -0.0000    0.0000   -0.0000    0.0000    0.0000
  112 O10    2pz        0.0000   -0.0000   -0.0000   -0.0000   -0.0000   -0.0000   -0.0000    0.0000    0.0000    0.0000
  113 H11    1s        -0.0000    0.0000    0.0000    0.0000   -0.0000   -0.0000    0.0000   -0.0000   -0.0000    0.0000
  114 H12    1s         0.0000   -0.0000    0.0000   -0.0000   -0.0000   -0.0000   -0.0000    0.0000   -0.0000   -0.0000
  115 H13    1s         0.0000    0.0000   -0.0000    0.0000   -0.0000   -0.0000    0.0000   -0.0000    0.0000    0.0000
 
 
      Orbital               21        22        23        24        25        26        27        28        29        30
      Energy          -30.0261  -30.0257  -30.0242  -30.0241  -30.0223  -20.3214  -20.3145  -20.2951  -20.2942  -20.2507
      Occ. No.          2.0000    2.0000    2.0000    2.0000    2.0000    2.0000    2.0000    2.0000    2.0000    2.0000
 
    1 C1     1s         0.0000   -0.0000   -0.0000    0.0000   -0.0000    0.0000   -0.0000    0.0000   -0.0000   -0.0000
    2 C1     2s         0.0000   -0.0000   -0.0000    0.0000   -0.0000    0.0000   -0.0000   -0.0000    0.0000    0.0000
    3 C1     2px        0.0000   -0.0000   -0.0000   -0.0000    0.0000   -0.0000   -0.0000    0.0000   -0.0000    0.0000
    4 C1     2py       -0.0000   -0.0000   -0.0000    0.0000    0.0000   -0.0000   -0.0000    0.0000   -0.0000   -0.0000
    5 C1     2pz       -0.0000    0.0000    0.0000   -0.0000   -0.0000    0.0000    0.0000   -0.0000    0.0000    0.0000
    6 S2     1s        -0.0000    0.0000    0.0000   -0.0000    0.0000    0.0000    0.0000   -0.0000    0.0000    0.0000
    7 S2     2s        -0.0000    0.0000    0.0000   -0.0000    0.0000    0.0000    0.0000   -0.0000    0.0000    0.0000
    8 S2     3s        -0.0000    0.0000    0.0000   -0.0000    0.0000    0.0000    0.0000   -0.0000    0.0000    0.0002
    9 S2     2px       -0.0000   -0.0000   -0.0000    0.0000   -0.0000   -0.0000   -0.0000    0.0000   -0.0000   -0.0001
   10 S2     3px       -0.0000   -0.0000   -0.0000    0.0000   -0.0000   -0.0000   -0.0000    0.0000    0.0000   -0.0010
   11 S2     2py        0.0000   -0.0000   -0.0000   -0.0000   -0.0000   -0.0000   -0.0000    0.0000   -0.0000    0.0001
   12 S2     3py        0.0000   -0.0000   -0.0000   -0.0000   -0.0000   -0.0000   -0.0000    0.0000   -0.0000    0.0004
   13 S2     2pz       -0.0000    0.0000   -0.0000    0.0000    0.0000    0.0000   -0.0000   -0.0000    0.0000    0.0000
   14 S2     3pz        0.0000    0.0000   -0.0000    0.0000    0.0000    0.0000   -0.0000   -0.0000    0.0000    0.0000
   15 O3     1s         0.0000    0.0000    0.0000   -0.0000    0.0000   -0.0000   -0.0000   -0.0000    0.0000   -0.7990
   16 O3     2s         0.0000    0.0000    0.0000   -0.0000    0.0000    0.0000    0.0000   -0.0000    0.0000   -0.0014
   17 O3     2px       -0.0000    0.0000   -0.0000    0.0000   -0.0000   -0.0000   -0.0000    0.0000   -0.0000   -0.0015
   18 O3     2py       -0.0000    0.0000    0.0000    0.0000    0.0000    0.0000    0.0000    0.0000    0.0000   -0.0000
   19 O3     2pz        0.0000    0.0000   -0.0000    0.0000    0.0000    0.0000   -0.0000   -0.0000    0.0000    0.0002
   20 NP4    1s         0.0000   -0.0000   -0.0000   -0.0000   -0.0000   -0.0000   -0.0000   -0.0000    0.0000    0.0000
   21 NP4    2s        -0.0000   -0.0000    0.0000    0.0000    0.0000   -0.0000   -0.0000   -0.0000    0.0000    0.0000
   22 NP4    3s        -0.0000    0.0000    0.0000   -0.0000    0.0000   -0.0000   -0.0000   -0.0000    0.0000    0.0000
   23 NP4    4s        -0.0000    0.0000   -0.0000   -0.0000    0.0001   -0.0001   -0.0001   -0.0000    0.0000    0.0000
   24 NP4    5s        -0.0000   -0.0000    0.0000    0.0000    0.0002   -0.0002   -0.0002   -0.0000    0.0000    0.0000
   25 NP4    6s         0.0000    0.0000   -0.0000   -0.0000   -0.0001   -0.0006   -0.0006   -0.0001    0.0001    0.0000
   26 NP4    7s         0.0000   -0.0000   -0.0000    0.0000   -0.0000   -0.0006   -0.0007   -0.0002    0.0002    0.0000
   27 NP4    2px        0.0000   -0.0000    0.0000    0.0000   -0.0000    0.0000    0.0000    0.0000   -0.0000   -0.0000
   28 NP4    3px       -0.0000    0.0000   -0.0000   -0.0000    0.0000    0.0000    0.0000    0.0000   -0.0000   -0.0000
   29 NP4    4px       -0.0000    0.0000   -0.0000   -0.0000    0.0000    0.0000    0.0000    0.0000   -0.0000   -0.0000
   30 NP4    5px        0.0000   -0.0000    0.0000    0.0000   -0.0000    0.0000    0.0000    0.0000   -0.0000   -0.0000
   31 NP4    6px       -0.0000    0.0000   -0.0000   -0.0000    0.0000    0.0000   -0.0000    0.0001   -0.0000   -0.0000
   32 NP4    7px        0.0000   -0.0000   -0.0000   -0.0000   -0.0000    0.0000   -0.0000    0.0001   -0.0001    0.0000
   33 NP4    2py       -0.0000   -0.0000    0.0000   -0.0000   -0.0000    0.0000    0.0000    0.0000   -0.0000    0.0000
   34 NP4    3py        0.0000    0.0000   -0.0000    0.0000    0.0000    0.0000    0.0000    0.0000   -0.0000    0.0000
   35 NP4    4py        0.0000    0.0000   -0.0000    0.0000    0.0000    0.0000    0.0000    0.0000   -0.0000    0.0000
   36 NP4    5py       -0.0000   -0.0000    0.0000   -0.0000   -0.0000    0.0000    0.0000    0.0000   -0.0000    0.0000
   37 NP4    6py        0.0000    0.0000   -0.0000    0.0000    0.0000    0.0000   -0.0000    0.0001   -0.0001    0.0000
   38 NP4    7py       -0.0000   -0.0000   -0.0000    0.0000   -0.0000    0.0000   -0.0000    0.0002   -0.0003    0.0001
   39 NP4    2pz       -0.0000    0.0000    0.0000   -0.0000    0.0000   -0.0000    0.0000    0.0000   -0.0000   -0.0000
   40 NP4    3pz        0.0000   -0.0000   -0.0000    0.0000   -0.0000   -0.0000    0.0000    0.0000   -0.0000   -0.0000
   41 NP4    4pz       -0.0000   -0.0000   -0.0000    0.0000   -0.0000   -0.0000    0.0000    0.0000   -0.0000   -0.0000
   42 NP4    5pz       -0.0000    0.0000   -0.0000   -0.0000    0.0000   -0.0001    0.0001    0.0000   -0.0000   -0.0000
   43 NP4    6pz       -0.0000    0.0000    0.0000    0.0000    0.0000   -0.0006    0.0007    0.0000   -0.0000   -0.0000
   44 NP4    7pz       -0.0000    0.0000    0.0000   -0.0000    0.0000   -0.0005    0.0005    0.0000   -0.0000   -0.0000
   45 NP4    3d2-       0.0000   -0.0000   -0.0000   -0.0000    0.0000   -0.0000   -0.0000   -0.0000    0.0000   -0.0000
   46 NP4    4d2-       0.6094   -0.7892   -0.0134   -0.0076    0.0741    0.0000    0.0000   -0.0000    0.0000   -0.0000
   47 NP4    5d2-      -0.0002    0.0002    0.0000    0.0000   -0.0000   -0.0000   -0.0000   -0.0000    0.0000   -0.0000
   48 NP4    6d2-       0.0000   -0.0001   -0.0000   -0.0000    0.0000   -0.0000   -0.0000   -0.0002    0.0001   -0.0000
   49 NP4    3d1-      -0.0000   -0.0000    0.0000   -0.0000   -0.0000    0.0000   -0.0000   -0.0000    0.0000   -0.0000
   50 NP4    4d1-      -0.0056   -0.0161    0.8963   -0.4430   -0.0093   -0.0000   -0.0000   -0.0000    0.0000   -0.0000
   51 NP4    5d1-       0.0000    0.0000   -0.0002    0.0001    0.0000    0.0000   -0.0000   -0.0000    0.0000   -0.0000
   52 NP4    6d1-      -0.0000    0.0000    0.0000   -0.0000   -0.0000    0.0000    0.0000   -0.0000    0.0000   -0.0000
   53 NP4    3d0       -0.0000    0.0000    0.0000   -0.0000    0.0000   -0.0000   -0.0000    0.0000   -0.0000   -0.0000
   54 NP4    4d0       -0.0001    0.0932    0.0120   -0.0000    0.9956   -0.0000   -0.0000    0.0000   -0.0000   -0.0000
   55 NP4    5d0        0.0000   -0.0000   -0.0000    0.0000   -0.0001   -0.0001   -0.0001    0.0000   -0.0000   -0.0000
   56 NP4    6d0        0.0000    0.0000   -0.0000   -0.0000    0.0000   -0.0006   -0.0006    0.0001   -0.0001   -0.0000
   57 NP4    3d1+       0.0000   -0.0000    0.0000    0.0000   -0.0000    0.0000   -0.0000   -0.0000   -0.0000    0.0000
   58 NP4    4d1+       0.0116   -0.0077    0.4429    0.8964   -0.0046   -0.0000   -0.0000   -0.0000   -0.0000    0.0000
   59 NP4    5d1+      -0.0000    0.0000   -0.0001   -0.0002    0.0000    0.0000   -0.0000   -0.0000   -0.0000    0.0000
   60 NP4    6d1+       0.0000    0.0000    0.0000    0.0000   -0.0000    0.0000    0.0000   -0.0000    0.0000    0.0000
   61 NP4    3d2+       0.0000    0.0000    0.0000   -0.0000   -0.0000    0.0000    0.0000    0.0000   -0.0000   -0.0000
   62 NP4    4d2+       0.7927    0.6067    0.0101   -0.0104   -0.0569   -0.0000   -0.0000   -0.0000   -0.0000   -0.0000
   63 NP4    5d2+      -0.0002   -0.0002   -0.0000    0.0000    0.0000    0.0000    0.0000   -0.0000   -0.0000   -0.0000
   64 NP4    6d2+       0.0001    0.0000    0.0000   -0.0000   -0.0000    0.0000    0.0000    0.0000   -0.0001   -0.0001
   65 NP4    4f3-       0.0000    0.0000    0.0000   -0.0000   -0.0000   -0.0000    0.0000    0.0000    0.0000   -0.0000
   66 NP4    5f3-       0.0000    0.0000    0.0000   -0.0000   -0.0000   -0.0000    0.0000    0.0000    0.0000   -0.0000
   67 NP4    4f2-       0.0000   -0.0000    0.0000    0.0000    0.0000   -0.0000    0.0000   -0.0000    0.0000    0.0000
   68 NP4    5f2-      -0.0000    0.0000   -0.0000   -0.0000    0.0000   -0.0000    0.0000    0.0000    0.0000    0.0000
   69 NP4    4f1-       0.0000    0.0000    0.0000   -0.0000    0.0000    0.0000   -0.0000   -0.0000    0.0000   -0.0000
   70 NP4    5f1-       0.0000    0.0000    0.0000   -0.0000   -0.0000    0.0000   -0.0000   -0.0000    0.0000   -0.0000
   71 NP4    4f0        0.0000    0.0000   -0.0000    0.0000    0.0000   -0.0000    0.0000   -0.0000    0.0000    0.0000
   72 NP4    5f0       -0.0000   -0.0000    0.0000    0.0000    0.0000   -0.0000    0.0001   -0.0000    0.0000    0.0000
   73 NP4    4f1+      -0.0000    0.0000    0.0000    0.0000    0.0000    0.0000   -0.0000   -0.0000   -0.0000    0.0000
   74 NP4    5f1+      -0.0000    0.0000    0.0000    0.0000   -0.0000    0.0000   -0.0000   -0.0000    0.0000    0.0000
   75 NP4    4f2+       0.0000    0.0000   -0.0000    0.0000   -0.0000    0.0000   -0.0000    0.0000   -0.0000    0.0000
   76 NP4    5f2+      -0.0000   -0.0000    0.0000   -0.0000   -0.0000    0.0000   -0.0000    0.0000    0.0000    0.0000
   77 NP4    4f3+      -0.0000    0.0000    0.0000    0.0000   -0.0000   -0.0000    0.0000   -0.0000   -0.0000    0.0000
   78 NP4    5f3+      -0.0000    0.0000    0.0000    0.0000   -0.0000   -0.0000    0.0000   -0.0000    0.0000    0.0000
   79 O5     1s         0.0000    0.0000    0.0000   -0.0000    0.0000   -0.0000   -0.0000   -0.0196   -0.9999   -0.0000
   80 O5     2s         0.0000    0.0000    0.0000   -0.0000    0.0000    0.0000    0.0000    0.0000   -0.0017   -0.0000
   81 O5     2px        0.0000   -0.0000   -0.0000   -0.0000    0.0000    0.0000    0.0000    0.0000    0.0018   -0.0000
   82 O5     2py        0.0000    0.0000   -0.0000   -0.0000   -0.0000   -0.0000   -0.0000    0.0001   -0.0000   -0.0000
   83 O5     2pz       -0.0000    0.0000    0.0000   -0.0000   -0.0000    0.0000   -0.0000    0.0000    0.0000   -0.0000
   84 S6     1s         0.0000    0.0000   -0.0000   -0.0000    0.0000    0.0000    0.0000   -0.0000    0.0000    0.0000
   85 S6     2s         0.0000    0.0000   -0.0000   -0.0000    0.0000    0.0000    0.0000   -0.0002    0.0002    0.0000
   86 S6     3s         0.0000    0.0000   -0.0000   -0.0000    0.0000    0.0000    0.0000   -0.0009    0.0009    0.0000
   87 S6     2px        0.0000    0.0000   -0.0000   -0.0000    0.0000    0.0000    0.0000    0.0001    0.0001   -0.0000
   88 S6     3px       -0.0000    0.0000   -0.0000   -0.0000    0.0000    0.0000    0.0000    0.0004    0.0008   -0.0000
   89 S6     2py       -0.0000    0.0000   -0.0000    0.0000    0.0000    0.0000    0.0000   -0.0001    0.0000    0.0000
   90 S6     3py        0.0000    0.0000   -0.0000    0.0000    0.0000    0.0000    0.0000   -0.0007    0.0001    0.0000
   91 S6     2pz        0.0000    0.0000    0.0000   -0.0000    0.0000    0.0000   -0.0000   -0.0000    0.0000    0.0000
   92 S6     3pz       -0.0000    0.0000    0.0000   -0.0000   -0.0000    0.0000   -0.0000   -0.0000    0.0000    0.0000
   93 O7     1s        -0.0000    0.0000    0.0000    0.0000    0.0000   -0.0000   -0.0000    0.9999   -0.0196    0.0000
   94 O7     2s        -0.0000    0.0000    0.0000    0.0000    0.0000    0.0000    0.0000    0.0017   -0.0001    0.0000
   95 O7     2px        0.0000    0.0000    0.0000   -0.0000   -0.0000   -0.0000   -0.0000    0.0012   -0.0001    0.0000
   96 O7     2py       -0.0000   -0.0000   -0.0000    0.0000    0.0000    0.0000    0.0000   -0.0014   -0.0000    0.0000
   97 O7     2pz        0.0000    0.0000    0.0000    0.0000   -0.0000    0.0000   -0.0000   -0.0000   -0.0000    0.0000
   98 O8     1s        -0.0000    0.0000    0.0000    0.0000    0.0000   -0.0000   -0.0000   -0.0000    0.0000    0.6014
   99 O8     2s        -0.0000    0.0000    0.0000    0.0000    0.0000    0.0000    0.0000   -0.0000    0.0000    0.0010
  100 O8     2px       -0.0000   -0.0000    0.0000    0.0000    0.0000    0.0000    0.0000   -0.0000   -0.0000   -0.0007
  101 O8     2py        0.0000    0.0000   -0.0000   -0.0000   -0.0000    0.0000   -0.0000    0.0000   -0.0000    0.0009
  102 O8     2pz       -0.0000    0.0000   -0.0000   -0.0000    0.0000    0.0000   -0.0000   -0.0000    0.0000   -0.0001
  103 O9     1s        -0.0000    0.0000    0.0000    0.0000    0.0000    1.0001   -0.0009    0.0000   -0.0000   -0.0000
  104 O9     2s        -0.0000    0.0000    0.0000    0.0000    0.0000    0.0015    0.0001    0.0000   -0.0000    0.0000
  105 O9     2px        0.0000   -0.0000    0.0000    0.0000   -0.0000   -0.0000    0.0000   -0.0000    0.0000   -0.0000
  106 O9     2py       -0.0000   -0.0000    0.0000   -0.0000   -0.0000   -0.0000    0.0000   -0.0000    0.0000   -0.0000
  107 O9     2pz        0.0000   -0.0000   -0.0000   -0.0000   -0.0000   -0.0013   -0.0000    0.0000   -0.0000   -0.0000
  108 O10    1s        -0.0000    0.0000    0.0000    0.0000    0.0000    0.0009    1.0001    0.0000   -0.0000   -0.0000
  109 O10    2s        -0.0000    0.0000    0.0000    0.0000    0.0000    0.0001    0.0016    0.0000   -0.0000   -0.0000
  110 O10    2px       -0.0000    0.0000   -0.0000   -0.0000    0.0000    0.0000    0.0000   -0.0000    0.0000   -0.0000
  111 O10    2py        0.0000    0.0000   -0.0000    0.0000    0.0000    0.0000    0.0000   -0.0000    0.0000   -0.0000
  112 O10    2pz       -0.0000    0.0000    0.0000    0.0000    0.0000    0.0000    0.0013   -0.0000    0.0000    0.0000
  113 H11    1s         0.0000   -0.0000   -0.0000   -0.0000   -0.0000    0.0000    0.0000   -0.0000    0.0000    0.0000
  114 H12    1s        -0.0000    0.0000    0.0000   -0.0000    0.0000    0.0000    0.0001   -0.0000    0.0000   -0.0000
  115 H13    1s        -0.0000   -0.0000   -0.0000    0.0000   -0.0000    0.0000    0.0000   -0.0000    0.0000   -0.0000
 
 
      Orbital               31        32        33        34        35        36        37        38        39        40
      Energy          -20.2507  -15.9076  -15.9034  -15.9033  -15.9031  -15.9026  -15.8936  -15.8935  -13.1527  -11.2163
[...]
      1s      -0.0000 -0.0000 -0.0000  0.0000  0.0000  0.0000  0.0000 -0.0000  0.0000  0.0000  0.0000 -0.0000
      2s      -0.0000  0.0000  0.0000  0.0000  0.0000 -0.0000  0.0000  0.0000  0.0000  0.0000  0.0000  0.0000
      2px      0.0000 -0.0000  0.0000 -0.0000  0.0001 -0.0000  0.0001  0.0000  0.0003  0.0003  0.0000  0.0000
      2pz      0.0000  0.0000 -0.0000  0.0000  0.2440 -0.0000  0.2463 -0.0000  0.0004  0.0005  0.0000  0.0000
      2py      0.0000 -0.0000  0.0000 -0.0000  0.0003 -0.0000  0.0002  0.0000  0.0014  0.0012  0.0000  0.0000
      3s       0.0000  0.0000  0.0000  0.0000  0.0000  0.0000  0.0000  0.0000  0.0000  0.0000  0.0000  0.0000
      3px      0.0000  0.0000  0.0000 -0.0000  0.0000  0.0002  0.0000  0.0000  0.0000  0.0000  0.0000  0.0000
      3pz      0.0000 -0.0000  0.0000  0.0000  0.0000  0.5005  0.0000  0.0000  0.0000  0.0000  0.0000  0.0000
      3py      0.0000  0.0000  0.0000 -0.0000  0.0000  0.0006  0.0000  0.0000  0.0000  0.0000  0.0000  0.0000
      4s       0.0000  0.0000  0.0000  0.0000  0.0000  0.0000  0.0000  0.0000  0.0000  0.0000  0.0000  0.0000
      3d2+     0.0000  0.0000  0.0000  0.0000  0.0000  0.0000  0.0000  0.0000  0.0000  0.0000  0.0000  0.0000
      3d1+     0.0000  0.0000  0.0000 -0.0000  0.0000  0.0000  0.0000  0.0000  0.0000  0.0000  0.0000  0.0000
      3d0      0.0000  0.0000  0.0000  0.0000  0.0000  0.0000  0.0000  0.0000  0.0000  0.0000  0.0000  0.0000
      3d1-     0.0000  0.0000  0.0000 -0.0000  0.0000  0.0000  0.0000  0.0000  0.0000  0.0000  0.0000  0.0000
      3d2-     0.0000  0.0000  0.0000  0.0000  0.0000  0.0000  0.0000  0.0000  0.0000  0.0000  0.0000  0.0000
      4px      0.0000  0.0000  0.0000 -0.0000  0.0000  0.0000  0.0000  0.0000  0.0000  0.0000  0.0000  0.0000
      4pz      0.0000  0.0000  0.0000 -0.0000  0.0000  0.0000  0.0000  0.0000  0.0000  0.0000  0.0000  0.0000
      4py      0.0000  0.0000  0.0000 -0.0000  0.0000  0.0000  0.0000  0.0000  0.0000  0.0000  0.0000  0.0000
      5s       0.0000  0.0000  0.0000  0.0000  0.0000  0.0000  0.0000  0.0000  0.0000  0.0000  0.0000  0.0000
      4d2+     0.0000  0.0000  0.0000 -0.0000  0.0000  0.0000  0.0000  0.0000  0.0000  0.0000  0.0000  0.0000
      4d1+     0.0000  0.0000  0.0000  0.0000  0.0000  0.0000  0.0000  0.0000  0.0000  0.0000  0.0000  0.0000
      4d0      0.0000  0.0000  0.0000  0.0000  0.0000  0.0000  0.0000  0.0000  0.0000  0.0000  0.0000  0.0000
      4d1-     0.0000  0.0000  0.0000  0.0000  0.0000  0.0000  0.0000  0.0000  0.0000  0.0000  0.0000  0.0000
      4d2-     0.0000  0.0000  0.0000 -0.0000  0.0000  0.0000  0.0000  0.0000  0.0000  0.0000  0.0000  0.0000
      5px      0.0000  0.0000  0.0000 -0.0000  0.0000  0.0000  0.0000  0.0000  0.0000  0.0000  0.0000  0.0000
      5pz      0.0000  0.0000  0.0000  0.0000  0.0000  0.0000  0.0000  0.0000  0.0000  0.0000  0.0000  0.0000
      5py      0.0000  0.0000  0.0000 -0.0000  0.0000  0.0000  0.0000  0.0000  0.0000  0.0000  0.0000  0.0000
      6s       0.0000  0.0000  0.0000  0.0000  0.0000  0.0000  0.0000  0.0000  0.0000  0.0000  0.0000  0.0000
      4f3+     0.0000  0.0000  0.0000 -0.0000  0.0000  0.0000  0.0000  0.0000  0.0000  0.0000  0.0000  0.0000
      4f2+     0.0000  0.0000  0.0000 -0.0000  0.0000  0.0000  0.0000  0.0000  0.0000  0.0000  0.0000  0.0000
      4f1+     0.0000  0.0000  0.0000  0.0000  0.0000  0.0000  0.0000  0.0000  0.0000  0.0000  0.0000  0.0000
      4f0      0.0000  0.0000  0.0000  0.0000  0.0000  0.0000  0.0000  0.0000  0.0000  0.0000  0.0000  0.0000
      4f1-     0.0000  0.0000  0.0000  0.0000  0.0000  0.0000  0.0000  0.0000  0.0000  0.0000  0.0000  0.0000
      4f2-     0.0000  0.0000  0.0000  0.0000  0.0000  0.0000  0.0000  0.0000  0.0000  0.0000  0.0000  0.0000
      4f3-     0.0000  0.0000  0.0000  0.0000  0.0000  0.0000  0.0000  0.0000  0.0000  0.0000  0.0000  0.0000
      5d2+     0.0000  0.0000  0.0000 -0.0000  0.0000  0.0000  0.0000  0.0000  0.0000  0.0000  0.0000  0.0000
      5d1+     0.0000  0.0000  0.0000  0.0000  0.0000  0.0000  0.0000  0.0000  0.0000  0.0000  0.0000  0.0000
      5d0      0.0000  0.0000  0.0000 -0.0000  0.0000  0.0000  0.0000  0.0000  0.0000  0.0000  0.0000  0.0000
      5d1-     0.0000  0.0000  0.0000  0.0000  0.0000  0.0000  0.0000  0.0000  0.0000  0.0000  0.0000  0.0000
      5d2-     0.0000  0.0000  0.0000 -0.0000  0.0000  0.0000  0.0000  0.0000  0.0000  0.0000  0.0000  0.0000
      6px      0.0000  0.0000  0.0000  0.0000  0.0000  0.0000  0.0000  0.0000  0.0000  0.0000  0.0000  0.0000
      6pz      0.0000  0.0000  0.0000  0.0001  0.0000  0.0000  0.0000  0.0000  0.0000  0.0000  0.0000  0.0000
      6py      0.0000  0.0000  0.0000  0.0000  0.0000  0.0000  0.0000  0.0000  0.0000  0.0000  0.0000  0.0000
      7s       0.0000  0.0000  0.0000  0.0000  0.0000  0.0000  0.0000  0.0000  0.0000  0.0000  0.0000  0.0000
      5f3+     0.0000  0.0000  0.0000 -0.0002  0.0000  0.0000  0.0000  0.0000  0.0000  0.0000  0.0000  0.0000
      5f2+     0.0000  0.0000  0.0000 -0.0015  0.0000  0.0000  0.0000  0.0000  0.0000  0.0000  0.0000  0.0000
      5f1+     0.0000  0.0000  0.0000  0.0000  0.0000  0.0000  0.0000  0.0000  0.0000  0.0000  0.0000  0.0000
      5f0      0.0000  0.0000  0.0000  0.0001  0.0000  0.0000  0.0000  0.0000  0.0000  0.0000  0.0000  0.0000
      5f1-     0.0000  0.0000  0.0000  0.0000  0.0000  0.0000  0.0000  0.0000  0.0000  0.0000  0.0000  0.0000
      5f2-     0.0000  0.0000  0.0000 -0.0007  0.0000  0.0000  0.0000  0.0000  0.0000  0.0000  0.0000  0.0000
      5f3-     0.0000  0.0000  0.0000  0.0024  0.0000  0.0000  0.0000  0.0000  0.0000  0.0000  0.0000  0.0000
      6d2+     0.0000  0.0000  0.0000  0.0000  0.0000  0.0000  0.0000  0.0000  0.0000  0.0000  0.0000  0.0000
      6d1+     0.0000  0.0000  0.0000  0.0002  0.0000  0.0000  0.0000  0.0000  0.0000  0.0000  0.0000  0.0000
      6d0      0.0000  0.0000  0.0000  0.0000  0.0000  0.0000  0.0000  0.0000  0.0000  0.0000  0.0000  0.0000
      6d1-     0.0000  0.0000  0.0000  0.0009  0.0000  0.0000  0.0000  0.0000  0.0000  0.0000  0.0000  0.0000
      6d2-     0.0000  0.0000  0.0000  0.0000  0.0000  0.0000  0.0000  0.0000  0.0000  0.0000  0.0000  0.0000
      7px      0.0000  0.0000  0.0000  0.0000  0.0000  0.0000  0.0000  0.0000  0.0000  0.0000  0.0000  0.0000
      7pz      0.0000  0.0000  0.0000  0.0022  0.0000  0.0000  0.0000  0.0000  0.0000  0.0000  0.0000  0.0000
      7py      0.0000  0.0000  0.0000  0.0000  0.0000  0.0000  0.0000  0.0000  0.0000  0.0000  0.0000  0.0000
      Total    0.0000 -0.0000  0.0000  0.0037  0.2443  0.5012  0.2467  0.0000  0.0021  0.0020  0.0000 -0.0000
 
                H13   
      1s       0.0000
      2s       0.0000
      2px      0.0000
      2pz      0.0000
      2py      0.0000
      3s       0.0000
      3px      0.0000
      3pz      0.0000
      3py      0.0000
      4s       0.0000
      3d2+     0.0000
      3d1+     0.0000
      3d0      0.0000
      3d1-     0.0000
      3d2-     0.0000
      4px      0.0000
      4pz      0.0000
      4py      0.0000
      5s       0.0000
      4d2+     0.0000
      4d1+     0.0000
      4d0      0.0000
      4d1-     0.0000
      4d2-     0.0000
      5px      0.0000
      5pz      0.0000
      5py      0.0000
      6s       0.0000
      4f3+     0.0000
      4f2+     0.0000
      4f1+     0.0000
      4f0      0.0000
      4f1-     0.0000
      4f2-     0.0000
      4f3-     0.0000
      5d2+     0.0000
      5d1+     0.0000
      5d0      0.0000
      5d1-     0.0000
      5d2-     0.0000
      6px      0.0000
      6pz      0.0000
      6py      0.0000
      7s       0.0000
      5f3+     0.0000
      5f2+     0.0000
      5f1+     0.0000
      5f0      0.0000
      5f1-     0.0000
      5f2-     0.0000
      5f3-     0.0000
      6d2+     0.0000
      6d1+     0.0000
      6d0      0.0000
      6d1-     0.0000
      6d2-     0.0000
      7px      0.0000
      7pz      0.0000
      7py      0.0000
      Total    0.0000
 
      Total electronic spin=    1.000000
--
 
 

      LoProp population analysis for root number: 12
      -----------------------------------------------
 
 
++    LoProp analysis:
      ----------------
 
 
 
  Input file to MOLDEN was generated!
 
 
++    Static properties:
      ------------------
 
 
      LoProp Charges per center
 

                   C1       S2       O3       NP4      O5       S6       O7       O8       O9       O10   
      Nuclear      6.0000  16.0000   8.0000  93.0000   8.0000  16.0000   8.0000   8.0000   8.0000   8.0000
      Electronic  -6.4485 -15.0102  -8.8218 -90.5308  -8.7358 -15.2985  -8.7348  -8.8217  -8.9752  -8.9867
 
      Total       -0.4485   0.9898  -0.8218   2.4692  -0.7358   0.7015  -0.7348  -0.8217  -0.9752  -0.9867
 

                   H11      H12      H13   
      Nuclear      1.0000   1.0000   1.0000
      Electronic  -0.8897  -0.8567  -0.8897
 
      Total        0.1103   0.1433   0.1103
--
 
 
      Natural Bond Order analysis for root number: 12
 
++    Natural Bond Order analysis
      ---------------------------
      Based on LoProp computed density
      -------------------------------------------------------------------------------------
      Atom A       Atom B       Bond Order | Atom A       Atom B       Bond Order
        C1           S2             1.000  |   NP4          O10            2.000
        C1           H11            0.999  |   O5           S6             1.000
        C1           H12            1.000  |   S6           O7             1.000
        C1           H13            0.999  |   S2           O3             0.981
        NP4          O9             3.000  |   S2           O8             0.981
      -------------------------------------------------------------------------------------
      NBO located    117.999 core electrons.
      NBO located     28.923 lone pair electrons.
      NBO located     25.919 electrons involved in   10 bonds.
      The remaining   10.159 electrons are to be considered as diffuse
--
 
--
 
 
  Input file to MOLDEN was generated!
 
 
  Input file to MOLDEN was generated!
 
 
  Input file to MOLDEN was generated!
 
 
  Input file to MOLDEN was generated!
 
 
  Input file to MOLDEN was generated!
 
 
  Input file to MOLDEN was generated!
 
 
  Input file to MOLDEN was generated!
 
 
  Input file to MOLDEN was generated!
 
 
  Input file to MOLDEN was generated!
 
 
  Input file to MOLDEN was generated!
 
 
  Input file to MOLDEN was generated!
 
 
  Input file to MOLDEN was generated!
 
 
  Input file to MOLDEN was generated!
 
      Average orbitals are written to the RASORB file
      Natural orbitals for root   1 are written to the RASORB.1 file
      Natural orbitals for root   2 are written to the RASORB.2 file
      Natural orbitals for root   3 are written to the RASORB.3 file
      Natural orbitals for root   4 are written to the RASORB.4 file
      Natural orbitals for root   5 are written to the RASORB.5 file
      Natural orbitals for root   6 are written to the RASORB.6 file
      Natural orbitals for root   7 are written to the RASORB.7 file
      Natural orbitals for root   8 are written to the RASORB.8 file
      Natural orbitals for root   9 are written to the RASORB.9 file
      Natural orbitals for root  10 are written to the RASORB.10 file
      Natural orbitals for root  11 are written to the RASORB.11 file
      Natural orbitals for root  12 are written to the RASORB.12 file
      Spin density orbitals for root   1 are written to the SPDORB.1 file
      Spin density orbitals for root   2 are written to the SPDORB.2 file
      Spin density orbitals for root   3 are written to the SPDORB.3 file
      Spin density orbitals for root   4 are written to the SPDORB.4 file
      Spin density orbitals for root   5 are written to the SPDORB.5 file
      Spin density orbitals for root   6 are written to the SPDORB.6 file
      Spin density orbitals for root   7 are written to the SPDORB.7 file
      Spin density orbitals for root   8 are written to the SPDORB.8 file
      Spin density orbitals for root   9 are written to the SPDORB.9 file
      Spin density orbitals for root  10 are written to the SPDORB.10 file
      Spin density orbitals for root  11 are written to the SPDORB.11 file
      Spin density orbitals for root  12 are written to the SPDORB.12 file
 
 ###############################################################################
 ###############################################################################
 ###                                                                         ###
 ###                                                                         ###
 ###    RunFile label Unique Atom Name                                       ###
 ###    was used       62 times                                              ###
 ###                                                                         ###
 ###                                                                         ###
 ###############################################################################
 ###############################################################################
 ###############################################################################
 ###############################################################################
 ###                                                                         ###
 ###                                                                         ###
 ###    RunFile label LP_L                                                   ###
 ###    was used       48 times                                              ###
 ###                                                                         ###
 ###                                                                         ###
 ###############################################################################
 ###############################################################################
 ###############################################################################
 ###############################################################################
 ###                                                                         ###
 ###                                                                         ###
 ###    RunFile label BirthCertificate                                       ###
 ###    was used       78 times                                              ###
 ###                                                                         ###
 ###                                                                         ###
 ###############################################################################
 ###############################################################################
 ###############################################################################
 ###############################################################################
 ###                                                                         ###
 ###                                                                         ###
 ###    RunFile label Unique Coordinat                                       ###
 ###    was used       62 times                                              ###
 ###                                                                         ###
 ###                                                                         ###
 ###############################################################################
 ###############################################################################
 ###############################################################################
 ###############################################################################
 ###                                                                         ###
 ###                                                                         ###
 ###    RunFile label Center Index                                           ###
 ###    was used       60 times                                              ###
 ###                                                                         ###
 ###                                                                         ###
 ###############################################################################
 ###############################################################################
 ###############################################################################
 ###############################################################################
 ###                                                                         ###
 ###                                                                         ###
 ###    RunFile label nBas                                                   ###
 ###    was used       93 times                                              ###
 ###                                                                         ###
 ###                                                                         ###
 ###############################################################################
 ###############################################################################
--- Stop Module: rasscf at Sat Nov 17 18:32:17 2018 /rc=_RC_ALL_IS_WELL_ ---
*** files: NpO2_CH3SO2_SO2-m1-doublet.casscf.MB.LprOrb NpO2_CH3SO2_SO2-m1-doublet.casscf.MB.rasscf.molden.9 NpO2_CH3SO2_SO2-m1-doublet.casscf.MB.rasscf.molden.12
           NpO2_CH3SO2_SO2-m1-doublet.casscf.MB.rasscf.molden.1 NpO2_CH3SO2_SO2-m1-doublet.casscf.MB.rasscf.molden.10 NpO2_CH3SO2_SO2-m1-doublet.casscf.MB.rasscf.molden.11
           NpO2_CH3SO2_SO2-m1-doublet.casscf.MB.rasscf.molden.8 NpO2_CH3SO2_SO2-m1-doublet.casscf.MB.rasscf.molden.2 NpO2_CH3SO2_SO2-m1-doublet.casscf.MB.rasscf.molden
           NpO2_CH3SO2_SO2-m1-doublet.casscf.MB.rasscf.molden.4 NpO2_CH3SO2_SO2-m1-doublet.casscf.MB.rasscf.molden.6 NpO2_CH3SO2_SO2-m1-doublet.casscf.MB.rasscf.molden.3
           NpO2_CH3SO2_SO2-m1-doublet.casscf.MB.rasscf.molden.5 NpO2_CH3SO2_SO2-m1-doublet.casscf.MB.rasscf.molden.7 NpO2_CH3SO2_SO2-m1-doublet.casscf.MB.LoProp.molden
           NpO2_CH3SO2_SO2-m1-doublet.casscf.MB.RasOrb.3 NpO2_CH3SO2_SO2-m1-doublet.casscf.MB.RasOrb.8 NpO2_CH3SO2_SO2-m1-doublet.casscf.MB.RasOrb.12
           NpO2_CH3SO2_SO2-m1-doublet.casscf.MB.RasOrb.7 NpO2_CH3SO2_SO2-m1-doublet.casscf.MB.RasOrb.9 NpO2_CH3SO2_SO2-m1-doublet.casscf.MB.RasOrb.10
           NpO2_CH3SO2_SO2-m1-doublet.casscf.MB.RasOrb.5 NpO2_CH3SO2_SO2-m1-doublet.casscf.MB.RasOrb.6 NpO2_CH3SO2_SO2-m1-doublet.casscf.MB.RasOrb.2
           NpO2_CH3SO2_SO2-m1-doublet.casscf.MB.RasOrb.4 NpO2_CH3SO2_SO2-m1-doublet.casscf.MB.RasOrb.1 NpO2_CH3SO2_SO2-m1-doublet.casscf.MB.RasOrb.11
           NpO2_CH3SO2_SO2-m1-doublet.casscf.MB.RasOrb NpO2_CH3SO2_SO2-m1-doublet.casscf.MB.rasscf.h5 NpO2_CH3SO2_SO2-m1-doublet.casscf.MB.SpdOrb.5
           NpO2_CH3SO2_SO2-m1-doublet.casscf.MB.SpdOrb.6 NpO2_CH3SO2_SO2-m1-doublet.casscf.MB.SpdOrb.10 NpO2_CH3SO2_SO2-m1-doublet.casscf.MB.SpdOrb.11
           NpO2_CH3SO2_SO2-m1-doublet.casscf.MB.SpdOrb.9 NpO2_CH3SO2_SO2-m1-doublet.casscf.MB.SpdOrb.4 NpO2_CH3SO2_SO2-m1-doublet.casscf.MB.SpdOrb.8
           NpO2_CH3SO2_SO2-m1-doublet.casscf.MB.SpdOrb.1 NpO2_CH3SO2_SO2-m1-doublet.casscf.MB.SpdOrb.3 NpO2_CH3SO2_SO2-m1-doublet.casscf.MB.SpdOrb.2
           NpO2_CH3SO2_SO2-m1-doublet.casscf.MB.SpdOrb.12 NpO2_CH3SO2_SO2-m1-doublet.casscf.MB.SpdOrb.7 xmldump
    saved to directory /home/vallet/John-methylsulfonyl/NpO2_CH3SO2_SO2-m1/doublet-geom/optg-freq-pbe0/SO-XMS
--- Module rasscf spent 30 seconds ---

>>> COPY NpO2_CH3SO2_SO2-m1-doublet.casscf.MB.RasOrb /home/vallet/John-methylsulfonyl/NpO2_CH3SO2_SO2-m1/doublet-geom/optg-freq-pbe0/SO-XMS/NpO2_CH3SO2_SO2-m1-doublet.casscf.MB.RasOrb_doublets

>>> COPY NpO2_CH3SO2_SO2-m1-doublet.casscf.MB.rasscf.molden /home/vallet/John-methylsulfonyl/NpO2_CH3SO2_SO2-m1/doublet-geom/optg-freq-pbe0/SO-XMS/NpO2_CH3SO2_SO2-m1-doublet.casscf.MB.rasscf_doublets.molden

    Timing: Wall=169.61 User=1121.55 System=35.81
