   This run of MOLCAS is using the pymolcas driver

                             OPE
                             OPE          NMOL  CASOP  ENMOLC A   SO
                 OPE        NMOLC        AS  OP EN  MO LC     AS  OP
                OPENM       OL CA        SO  PE NM  OL CA     SOP EN
                OP EN      MO   LC       AS  OP ENMOL  CASO   PENMOL
                OP  EN     MO   LC       AS  OP EN     MO     LC ASO
               OP   E  NMOL  C  AS       OP  EN MO     LC     AS  OP
               OP  E   NMO   LC AS        OPEN  MO     LCASOP EN   M
               O  PEN   MO  LCA  SO
            OPE   NMO   L   CAS    OP
        OPENMOL  CASOP     ENMOL   CASOPE
     OPENMOLCA   SOPENMOLCASOPEN   MOLCASOPE
    OPENMOLCAS   OP           EN   MOL    CAS
    OPENMOLCAS       OP  ENM        O     LCA
    OPENMOLCAS    OPEN  MOLCASO     P  E  NMO
    OPENMOLCAS     OP               E  N  MOL
    OPENMOLCA   SO           PENM   O  L  CAS    OPEN    MO    LCAS
    OPENMOLCA   SOP           ENM   O  L  CAS   OP  EN  MOLC  AS   O
    OPENMOLCA   SOPE           NM      O  LCA   S      OP  EN MO
    OPENMOLC                AS         O  PEN   M      OL  CA  SOPE
    OPENMO        LCASOPE  NMOL        C  ASO   P      ENMOLC     AS
    OPE     NMO      LCA  SO     P     E   NM   OL  CA SO  PE N   MO
          OPENMOLCA            SOPE   NMO        LCAS  O    P  ENMO
     OPENMOLCASOPENMOLCASOPENMOLCASOPENMOLCA
        OPENMOLCASOPENMOLCASOPENMOLCASOPE
            OPENMOLCASOPENMOLCASOPENM
               OPENMOLCASOPENMOLCA        version: 18.09
                   OPENMOLCASO
                       OPE                tag: 50-g6d6e5e5-dirty

 OpenMolcas is free software; you can redistribute it and/or modify it
 under the terms of the GNU Lesser General Public License version 2.1.
 OpenMolcas is distributed in the hope that it will be useful, but it
 is provided "as is" and without any express or implied warranties.
 For more details see the full text of the license in the file
 LICENSE or in <http://www.gnu.org/licenses/>.

                 Copyright (C) The OpenMolcas Authors
           For the author list and the recommended citation,
                   consult the file CONTRIBUTORS.md

           *************************************************
           * pymolcas version py2.04                       *
           *   build 3b3f1139d1f9af0cd96dc01c0ce9d5c0      *
           *   (after the EMIL interpreter by V. Veryazov) *
           *************************************************

configuration info
------------------
C Compiler ID: Intel
C flags: -std=gnu99 -qopenmp
Fortran Compiler ID: Intel
Fortran flags: -fpp -i8 -r8 -heap-arrays -qopenmp
Definitions: _MOLCAS_;_I8_;_LINUX_;_MKL_;_FDE_
Parallel: OFF (GA=OFF)


   ----------------------------------------------------------------------------------------------------------------------------
  |
  |           Project: NpO2_CH3SO2_SO2-m1-doublet.rassi-SO-casscf-xmscaspt2.VTZP
  |    Submitted from: /home/vallet/John-methylsulfonyl/NpO2_CH3SO2_SO2-m1/doublet-geom/optg-freq-pbe0/SO-XMS
  |      Scratch area: /state/partition2/vallet/499169.phlam-s-sakura/NpO2_CH3SO2_SO2-m1-doublet.rassi-SO-casscf-xmscaspt2.VTZP
  |   Save outputs to: /home/vallet/John-methylsulfonyl/NpO2_CH3SO2_SO2-m1/doublet-geom/optg-freq-pbe0/SO-XMS
  |            Molcas: /home/pcmt/OpenMolcas/OpenMolcas-20181005
  |
  | Scratch area is empty
  |
  |    MOLCAS_DRIVER = /home/pcmt/OpenMolcas/OpenMolcas-20181005/sbin/pymolcas
  |   MOLCAS_LICENSE = /home/pcmt/molcas/license
  |    MOLCAS_MOLDEN = ON
  |    MOLCAS_NPROCS = 1
  |    MOLCAS_SOURCE = /home/pcmt/OpenMolcas/OpenMolcas-20181005
  | MOLCAS_STRUCTURE = 0
  |
   ----------------------------------------------------------------------------------------------------------------------------

++ ---------   Input file   ---------

&GATEWAY
   COORD=$HomeDir/NpO2_CH3SO2_SO2-m1-doublet.pbe0.optg-zaxis.xyz
   BASIS=ANO-RCC-VTZP
   Group=Nosym
   ANGM=0.0 0.0 0.0
   RICD

&SEWARD

>>> COPY $HomeDir/NpO2_CH3SO2_SO2-m1-doublet.casscf.MB.RunFile RUNFIL1

>>> COPY $Project.RunFile RUNFIL2

>>> COPY $HomeDir/NpO2_CH3SO2_SO2-m1-doublet.casscf.MB.RasOrb_quartets INPORB

&EXPBAS

>>> COPY $Project.ExpOrb $HomeDir/$Project.ExpOrb_quartets

>>> COPY $HomeDir/NpO2_CH3SO2_SO2-m1-doublet.casscf.MB.RasOrb_doublets INPORB

&EXPBAS

>>> COPY $Project.ExpOrb $HomeDir/$Project.ExpOrb_doublets

>>> COPY $HomeDir/$Project.ExpOrb_quartets INPORB

&RASSCF
   Spin=4
   Symmetry=1
   Nactel=3 0 0
   Inactive=90
   Ras2=5
   CIRoots=6 6 1
   Lumorb

>>> COPY $Project.JobIph $Project.JobIph_quartets

>>> COPY $Project.RasOrb $Project.RasOrb_quartets

&CASPT2
    IPEA=0.0
    XMUL= ALL
    THRESHOLDS= 1.0D-09 1.0D-07
    MAXITER=150
    CONVERGENCE=1.0D-6
    IMAG=0.1

>>> COPY $Project.JobMix $Project.JobMix_quartets

>>> COPY $HomeDir/$Project.ExpOrb_doublets INPORB

&RASSCF
   Spin=2
   Symmetry=1
   Nactel=3 0 0
   Inactive=90
   Ras2=5
   CIRoots=12 12 1
   Lumorb

>>> COPY $Project.JobIph $Project.JobIph_doublets

&CASPT2
    IPEA=0.0
    XMUL= ALL
    THRESHOLDS= 1.0D-09 1.0D-07
    MAXITER=150
    CONVERGENCE=1.0D-6
    IMAG=0.1

>>> COPY $Project.JobMix $Project.JobMix_doublets

>>> COPY $Project.JobIph_quartets JOB001

>>> COPY $Project.JobIph_doublets JOB002

&RASSI
    EJob
    SPINorbit

>>> COPY $Project.JobMix_quartets JOB001

>>> COPY $Project.JobMix_doublets JOB002

&RASSI
    EJob
    SPINorbit

-- ----------------------------------

--- Start Module: gateway at Sat Nov 17 20:58:15 2018 ---
 
()()()()()()()()()()()()()()()()()()()()()()()()()()()()()()()()()()()()()()()()()()()()()()()()()()

                                              &GATEWAY

                                   only a single process is used
                       available to each process: 32 GB of memory, 8 threads
()()()()()()()()()()()()()()()()()()()()()()()()()()()()()()()()()()()()()()()()()()()()()()()()()()
 
 
++    Symmetry information:
      ---------------------
 
                    Character Table for C1 
 
                             E  
                    a        1  x, y, xy, Rz, z, xz, Ry, yz, Rx, I
--
 
 
++    Basis set information:
      ----------------------
 
 
      Basis set label: C.ANO-RCC...4S3P2D1F.
 
      Electronic valence basis set:
      ------------------
      Associated Effective Charge   6.000000 au
      Associated Actual Charge      6.000000 au
      Nuclear Model: Point charge
 
      Shell  nPrim  nBasis  Cartesian Spherical Contaminant
         s      14       4        X                  
         p       9       3        X                  
         d       4       2                 X         
         f       3       1                 X         
 
 
      Basis set label: S.ANO-RCC...5S4P2D1F.
 
      Electronic valence basis set:
      ------------------
      Associated Effective Charge  16.000000 au
      Associated Actual Charge     16.000000 au
      Nuclear Model: Point charge
 
      Shell  nPrim  nBasis  Cartesian Spherical Contaminant
         s      17       5        X                  
         p      12       4        X                  
         d       5       2                 X         
         f       4       1                 X         
 
 
      Basis set label: O.ANO-RCC...4S3P2D1F.
 
      Electronic valence basis set:
      ------------------
      Associated Effective Charge   8.000000 au
      Associated Actual Charge      8.000000 au
      Nuclear Model: Point charge
 
      Shell  nPrim  nBasis  Cartesian Spherical Contaminant
         s      14       4        X                  
         p       9       3        X                  
         d       4       2                 X         
         f       3       1                 X         
 
 
      Basis set label: NP.ANO-RCC...9S8P6D4F2G1H.
 
      Electronic valence basis set:
      ------------------
      Associated Effective Charge  93.000000 au
      Associated Actual Charge     93.000000 au
      Nuclear Model: Point charge
 
      Shell  nPrim  nBasis  Cartesian Spherical Contaminant
         s      26       9        X                  
         p      23       8        X                  
         d      17       6                 X         
         f      13       4                 X         
         g       5       2                 X         
         h       3       1                 X         
 
 
      Basis set label: O.ANO-RCC...4S3P2D1F.
 
      Electronic valence basis set:
      ------------------
      Associated Effective Charge   8.000000 au
      Associated Actual Charge      8.000000 au
      Nuclear Model: Point charge
 
      Shell  nPrim  nBasis  Cartesian Spherical Contaminant
         s      14       4        X                  
         p       9       3        X                  
         d       4       2                 X         
         f       3       1                 X         
 
 
      Basis set label: S.ANO-RCC...5S4P2D1F.
 
      Electronic valence basis set:
      ------------------
      Associated Effective Charge  16.000000 au
      Associated Actual Charge     16.000000 au
      Nuclear Model: Point charge
 
      Shell  nPrim  nBasis  Cartesian Spherical Contaminant
         s      17       5        X                  
         p      12       4        X                  
         d       5       2                 X         
         f       4       1                 X         
 
 
      Basis set label: O.ANO-RCC...4S3P2D1F.
 
      Electronic valence basis set:
      ------------------
      Associated Effective Charge   8.000000 au
      Associated Actual Charge      8.000000 au
      Nuclear Model: Point charge
 
      Shell  nPrim  nBasis  Cartesian Spherical Contaminant
         s      14       4        X                  
         p       9       3        X                  
         d       4       2                 X         
         f       3       1                 X         
 
 
      Basis set label: H.ANO-RCC...3S2P1D.
 
      Electronic valence basis set:
      ------------------
      Associated Effective Charge   1.000000 au
      Associated Actual Charge      1.000000 au
      Nuclear Model: Point charge
 
      Shell  nPrim  nBasis  Cartesian Spherical Contaminant
         s       8       3        X                  
         p       4       2        X                  
         d       3       1                 X         
--
 
 
++    Molecular structure info:
      -------------------------
 
                    ************************************************ 
                    **** Cartesian Coordinates / Bohr, Angstrom **** 
                    ************************************************ 
 
     Center  Label                x              y              z                     x              y              z
        1      C1               2.860592       5.800836      -3.765393              1.513760       3.069670      -1.992560
        2      S2               2.586034       5.247429      -0.391513              1.368470       2.776820      -0.207180
        3      O3              -0.253771       4.739339      -0.117957             -0.134290       2.507950      -0.062420
        4      NP4              0.000000       0.000000       0.000000              0.000000       0.000000       0.000000
        5      O5               0.236613      -4.809107      -0.009978              0.125210      -2.544870      -0.005280
        6      S6              -2.610165      -5.300701      -0.080899             -1.381240      -2.805010      -0.042810
        7      O7              -3.955953      -2.744241      -0.014608             -2.093400      -1.452190      -0.007730
        8      O8               3.913453       2.686265      -0.115538              2.070910       1.421510      -0.061140
        9      O9               0.000000       0.000000       3.348784              0.000000       0.000000       1.772100
       10      O10             -0.006444      -0.012151      -3.361728             -0.003410      -0.006430      -1.778950
       11      H11              4.857976       6.016964      -4.223859              2.570730       3.184040      -2.235170
       12      H12              2.048161       4.153297      -4.700051              1.083840       2.197830      -2.487160
       13      H13              1.816877       7.517123      -4.225201              0.961450       3.977890      -2.235880
 
                    *************************************** 
                    *    InterNuclear Distances / Bohr    * 
                    *************************************** 
 
               1 C1            2 S2            3 O3            4 NP4           5 O5            6 S6    
    1 C1       0.000000
    2 S2       3.429971        0.000000
    3 O3       4.912212        2.897841        0.000000
    4 NP4      7.484040        5.863136        4.747594        0.000000
    5 O5      11.556786       10.334374        9.561640        4.814935        0.000000
    6 S6      12.913124       11.762653       10.312922        5.909055        2.889782        0.000000
    7 O7      11.556470       10.334720        8.349898        4.814627        4.673467        2.889814
    8 O8       4.912281        2.897890        4.645522        4.748103        8.349305       10.312633
    9 O9       9.614790        6.943551        5.877416        3.348784        5.870671        6.831772
   10 O10      6.494124        6.573150        5.758461        3.361756        5.856970        6.746255
   11 H11      2.060690        4.521148        6.679874        8.811627       12.502704       14.178391
   12 H12      2.061071        4.477715        5.161194        6.598130       10.276341       11.507156
   13 H13      2.060681        4.521092        5.373372        8.812519       13.122549       14.179934
 
               7 O7            8 O8            9 O9           10 O10          11 H11          12 H12   
    7 O7       0.000000
    8 O8       9.561805        0.000000
    9 O9       5.873059        5.876449        0.000000
   10 O10      5.853730        5.760624        6.710526        0.000000
   11 H11     13.121046        5.372521       10.823525        7.794618        0.000000
   12 H12     10.275154        5.162292        9.285935        4.833577        3.405154        0.000000
   13 H13     12.504009        6.679981       10.824667        7.794873        3.390982        3.405040
 
              13 H13   
   13 H13      0.000000
 
                    ******************************************* 
                    *    InterNuclear Distances / Angstrom    * 
                    ******************************************* 
 
               1 C1            2 S2            3 O3            4 NP4           5 O5            6 S6    
    1 C1       0.000000
    2 S2       1.815063        0.000000
    3 O3       2.599430        1.533471        0.000000
    4 NP4      3.960384        3.102638        2.512318        0.000000
    5 O5       6.115588        5.468715        5.059802        2.547954        0.000000
    6 S6       6.833331        6.224528        5.457363        3.126937        1.529207        0.000000
    7 O7       6.115421        5.468898        4.418576        2.547791        2.473092        1.529223
    8 O8       2.599467        1.533498        2.458304        2.512588        4.418262        5.457211
    9 O9       5.087928        3.674369        3.110195        1.772100        3.106625        3.615218
   10 O10      3.436543        3.478361        3.047247        1.778965        3.099375        3.569965
   11 H11      1.090470        2.392488        3.534837        4.662912        6.616146        7.502881
   12 H12      1.090672        2.369505        2.731186        3.491580        5.438005        6.089325
   13 H13      1.090465        2.392459        2.843466        4.663384        6.944154        7.503698
 
               7 O7            8 O8            9 O9           10 O10          11 H11          12 H12   
    7 O7       0.000000
    8 O8       5.059890        0.000000
    9 O9       3.107889        3.109683        0.000000
   10 O10      3.097660        3.048391        3.551057        0.000000
   11 H11      6.943358        2.843016        5.727563        4.124734        0.000000
   12 H12      5.437377        2.731767        4.913905        2.557819        1.801930        0.000000
   13 H13      6.616837        3.534894        5.728167        4.124869        1.794430        1.801870
 
              13 H13   
   13 H13      0.000000
 
                    ************************************** 
                    *    Valence Bond Angles / Degree    * 
                    ************************************** 
                          Atom centers                 Phi
                     11 H11      1 C1      12 H12      111.41
                     11 H11      1 C1      13 H13      110.73
                     12 H12      1 C1      13 H13      111.40
                      3 O3       2 S2       8 O8       106.56
                      5 O5       6 S6       7 O7       107.92
--
 
 
            Nuclear Potential Energy           2276.74376528 au
 
--- Stop Module: gateway at Sat Nov 17 21:02:43 2018 /rc=_RC_ALL_IS_WELL_ ---
*** files: NpO2_CH3SO2_SO2-m1-doublet.rassi-SO-casscf-xmscaspt2.VTZP.RICDLib xmldump
    saved to directory /home/vallet/John-methylsulfonyl/NpO2_CH3SO2_SO2-m1/doublet-geom/optg-freq-pbe0/SO-XMS
--- Module gateway spent 4 minutes 27 seconds ---

--- Start Module: seward at Sat Nov 17 21:02:43 2018 ---
 
()()()()()()()()()()()()()()()()()()()()()()()()()()()()()()()()()()()()()()()()()()()()()()()()()()

                                              &SEWARD

                                   only a single process is used
                       available to each process: 32 GB of memory, 8 threads
()()()()()()()()()()()()()()()()()()()()()()()()()()()()()()()()()()()()()()()()()()()()()()()()()()
 
               SEWARD will generate:
                  Multipole Moment integrals up to order  2
                  Kinetic Energy integrals
                  Nuclear Attraction integrals (point charge)
                  One-Electron Hamiltonian integrals
                  Velocity integrals
                  Relativistic Douglas-Kroll-Hess integrals:
                    - Parametrization         : EXP
                    - DKH order of Hamiltonian: 2
                    - DKH order of Properties : 0
                         - multipole moment operators
                         - electric potential operators
                         - contact operators
                  Orbital angular momentum around ( 0.0000  0.0000  0.0000 )
                  Atomic mean-field integrals
                  RI decomposed two-electron repulsion integrals stored Cholesky style
                   - acCD auxiliary basis
                   - CD Threshold:   0.10E-03
 
                   Integrals are discarded if absolute value <: 0.10E-13
                   Integral cutoff threshold is set to       <: 0.10E-15
 
            Nuclear Potential Energy           2276.74376528 au
 
 
      Basis set specifications :
      Symmetry species         a  
      Basis functions          440
 
 
 Post_2Center_RI
 Detected lin. dependences in the auxiliary basis.
 # of AuxBas before l. d. removal:   4155
 # of AuxBas after  l. d. removal:   4142
 
 Sorry, Molden does not know how to handle
 functions with angular momentum larger than g
--- Stop Module: seward at Sat Nov 17 21:07:19 2018 /rc=_RC_ALL_IS_WELL_ ---
*** files: NpO2_CH3SO2_SO2-m1-doublet.rassi-SO-casscf-xmscaspt2.VTZP.GssOrb NpO2_CH3SO2_SO2-m1-doublet.rassi-SO-casscf-xmscaspt2.VTZP.guessorb.h5 xmldump
    saved to directory /home/vallet/John-methylsulfonyl/NpO2_CH3SO2_SO2-m1/doublet-geom/optg-freq-pbe0/SO-XMS
--- Module seward spent 4 minutes 36 seconds ---

>>> COPY /home/vallet/John-methylsulfonyl/NpO2_CH3SO2_SO2-m1/doublet-geom/optg-freq-pbe0/SO-XMS/NpO2_CH3SO2_SO2-m1-doublet.casscf.MB.RunFile RUNFIL1

>>> COPY NpO2_CH3SO2_SO2-m1-doublet.rassi-SO-casscf-xmscaspt2.VTZP.RunFile RUNFIL2

>>> COPY /home/vallet/John-methylsulfonyl/NpO2_CH3SO2_SO2-m1/doublet-geom/optg-freq-pbe0/SO-XMS/NpO2_CH3SO2_SO2-m1-doublet.casscf.MB.RasOrb_quartets INPORB

--- Start Module: expbas at Sat Nov 17 21:07:20 2018 ---
 
()()()()()()()()()()()()()()()()()()()()()()()()()()()()()()()()()()()()()()()()()()()()()()()()()()

                                              &EXPBAS

                                   only a single process is used
                       available to each process: 32 GB of memory, 8 threads
()()()()()()()()()()()()()()()()()()()()()()()()()()()()()()()()()()()()()()()()()()()()()()()()()()
 

 Header on input orbitals file:
* RASSCF average (pseudo-natural) orbitals

 Information from input runfile
           Number of symmetries    1
      Number of basis functions  115

 Information from expanded basis set runfile
           Number of symmetries    1
      Number of basis functions  440
 New orbitals have been built in file EXPORB
--- Stop Module: expbas at Sat Nov 17 21:07:21 2018 /rc=_RC_ALL_IS_WELL_ ---
*** files: NpO2_CH3SO2_SO2-m1-doublet.rassi-SO-casscf-xmscaspt2.VTZP.ExpOrb xmldump
    saved to directory /home/vallet/John-methylsulfonyl/NpO2_CH3SO2_SO2-m1/doublet-geom/optg-freq-pbe0/SO-XMS
--- Module expbas spent 1 second ---

>>> COPY NpO2_CH3SO2_SO2-m1-doublet.rassi-SO-casscf-xmscaspt2.VTZP.ExpOrb /home/vallet/John-methylsulfonyl/NpO2_CH3SO2_SO2-m1/doublet-geom/optg-freq-pbe0/SO-XMS/NpO2_CH3SO2_SO2-m1-doublet.rassi-SO-casscf-xmscaspt2.VTZP.ExpOrb_quartets

>>> COPY /home/vallet/John-methylsulfonyl/NpO2_CH3SO2_SO2-m1/doublet-geom/optg-freq-pbe0/SO-XMS/NpO2_CH3SO2_SO2-m1-doublet.casscf.MB.RasOrb_doublets INPORB

--- Start Module: expbas at Sat Nov 17 21:07:22 2018 ---
 
()()()()()()()()()()()()()()()()()()()()()()()()()()()()()()()()()()()()()()()()()()()()()()()()()()

                                              &EXPBAS

                                   only a single process is used
                       available to each process: 32 GB of memory, 8 threads
()()()()()()()()()()()()()()()()()()()()()()()()()()()()()()()()()()()()()()()()()()()()()()()()()()
 

 Header on input orbitals file:
* RASSCF average (pseudo-natural) orbitals

 Information from input runfile
           Number of symmetries    1
      Number of basis functions  115

 Information from expanded basis set runfile
           Number of symmetries    1
      Number of basis functions  440
 New orbitals have been built in file EXPORB
--- Stop Module: expbas at Sat Nov 17 21:07:22 2018 /rc=_RC_ALL_IS_WELL_ ---
*** files: NpO2_CH3SO2_SO2-m1-doublet.rassi-SO-casscf-xmscaspt2.VTZP.ExpOrb xmldump
    saved to directory /home/vallet/John-methylsulfonyl/NpO2_CH3SO2_SO2-m1/doublet-geom/optg-freq-pbe0/SO-XMS

>>> COPY NpO2_CH3SO2_SO2-m1-doublet.rassi-SO-casscf-xmscaspt2.VTZP.ExpOrb /home/vallet/John-methylsulfonyl/NpO2_CH3SO2_SO2-m1/doublet-geom/optg-freq-pbe0/SO-XMS/NpO2_CH3SO2_SO2-m1-doublet.rassi-SO-casscf-xmscaspt2.VTZP.ExpOrb_doublets

>>> COPY /home/vallet/John-methylsulfonyl/NpO2_CH3SO2_SO2-m1/doublet-geom/optg-freq-pbe0/SO-XMS/NpO2_CH3SO2_SO2-m1-doublet.rassi-SO-casscf-xmscaspt2.VTZP.ExpOrb_quartets INPORB

--- Start Module: rasscf at Sat Nov 17 21:07:23 2018 ---
 
()()()()()()()()()()()()()()()()()()()()()()()()()()()()()()()()()()()()()()()()()()()()()()()()()()

                                              &RASSCF

                                   only a single process is used
                       available to each process: 32 GB of memory, 8 threads
()()()()()()()()()()()()()()()()()()()()()()()()()()()()()()()()()()()()()()()()()()()()()()()()()()
 
 
      Header of the ONEINT file:
      --------------------------
      
      Integrals generated by seward 4.2.0  , Sat Nov 17 21:02:44 2018
 
 
      OrdInt status: non-squared
 
 
      Cartesian coordinates in Angstrom:
      -----------------------------------------------------
      No.  Label        X            Y            Z        
      -----------------------------------------------------
       1   C1         1.51376000   3.06967000  -1.99256000
       2   S2         1.36847000   2.77682000  -0.20718000
       3   O3        -0.13429000   2.50795000  -0.06242000
       4   NP4        0.00000000   0.00000000   0.00000000
       5   O5         0.12521000  -2.54487000  -0.00528000
       6   S6        -1.38124000  -2.80501000  -0.04281000
       7   O7        -2.09340000  -1.45219000  -0.00773000
       8   O8         2.07091000   1.42151000  -0.06114000
       9   O9         0.00000000   0.00000000   1.77210000
      10   O10       -0.00341000  -0.00643000  -1.77895000
      11   H11        2.57073000   3.18404000  -2.23517000
      12   H12        1.08384000   2.19783000  -2.48716000
      13   H13        0.96145000   3.97789000  -2.23588000
      -----------------------------------------------------
      Nuclear repulsion energy = 2276.74376528
 
++    Wave function specifications:
      -----------------------------
 
      Number of closed shell electrons         180
      Number of electrons in active shells       3
      Max number of holes in RAS1 space          0
      Max nr of electrons in RAS3 space          0
      Number of inactive orbitals               90
      Number of active orbitals                  5
      Number of secondary orbitals             345
      Spin quantum number                      1.5
      State symmetry                             1
--
 
++    Orbital specifications:
      -----------------------
 
      Symmetry species                           1
                                                 a
      Frozen orbitals                            0
      Inactive orbitals                         90
      Active orbitals                            5
      RAS1 orbitals                              0
      RAS2 orbitals                              5
      RAS3 orbitals                              0
      Secondary orbitals                       345
      Deleted orbitals                           0
      Number of basis functions                440
--
 
++    CI expansion specifications:
      ----------------------------
 
      Number of CSFs                            10
      Number of determinants                    10
      Number of root(s) required                 6
      Root chosen for geometry opt.              6
      CI roots used                              1     2     3     4     5     6
      weights                                0.167 0.167 0.167 0.167 0.167 0.167
      highest root included in the CI            6
      max. size of the explicit Hamiltonian     10
--
 
++    Optimization specifications:
      ----------------------------
 
      RASSCF algorithm: LK RI/DF
      Maximum number of macro iterations       200
      Maximum number of SX iterations          100
      Threshold for RASSCF energy            0.100E-07
      Threshold for max MO rotation          0.100E+00
      Threshold for max BLB element          0.100E-03
      Level shift parameter                  0.500E+00
      Make Quasi-Newton update
--
 
      The MO-coefficients are taken from the file:
      INPORB                                                                                                                          
      Title:Basis set expanded orbital file EXPORB                                         
 
      Total molecular charge   -1.00
 
      ************************************************************************************************************************
      *                                                                                                                      *
      *                                            Wave function control section                                             *
      *                                                                                                                      *
      ************************************************************************************************************************
 
 
                                         RASSCF iterations: Energy and convergence statistics
                                         ----------------------------------------------------
 
      Iter CI   SX   CI       RASSCF       Energy    max ROT     max BLB   max BLB  Level Ln srch  Step   QN   Walltime
          iter iter root      energy       change     param      element    value   shift minimum  type update hh:mm:ss
 Nr of preliminary CI iterations:   1
      Total energies have been shifted. Add               -30000.00 au
        1   1   18    0   -22.59359913    0.00E+00  -0.38E-01   66 116 1  0.22E+00*  0.45   0.00    SX    NO    0:02:22
        2   1   21    0   -23.38514937   -0.79E+00* -0.47E-01   66 116 1  0.93E-01*  0.49   0.00    SX    NO    0:01:48
        3   1   21    0   -23.57565117   -0.19E+00* -0.37E-01   77 110 1 -0.60E-01*  0.46   0.00    SX    NO    0:01:30
        4   1   20    0   -23.63658386   -0.61E-01* -0.27E-01   77 110 1 -0.40E-01*  0.47   0.00    SX    NO    0:01:31
        5   1   20    0   -23.65821401   -0.22E-01* -0.32E-01   77 110 1 -0.25E-01*  0.46   2.43    LS   YES    0:01:36
        6   1   20    0   -23.66936719   -0.11E-01* -0.21E-01   85 103 1  0.18E-01*  0.45   1.21    QN   YES    0:01:38
        7   1   19    0   -23.67248699   -0.31E-02*  0.74E-02   67 197 1 -0.90E-02*  0.47   0.89    QN   YES    0:01:40
        8   1   18    0   -23.67340799   -0.92E-03*  0.46E-02   74  94 1 -0.29E-02*  0.47   1.64    LS   YES    0:01:45
        9   1   17    0   -23.67357171   -0.16E-03* -0.27E-02   85 103 1  0.36E-02*  0.46   1.02    QN   YES    0:01:49
       10   1   16    0   -23.67371305   -0.14E-03* -0.14E-02   74  94 1 -0.15E-02*  0.47   1.52    LS   YES    0:01:52
       11   1   15    0   -23.67373203   -0.19E-04* -0.20E-02   74  94 1 -0.12E-02*  0.47   1.01    QN   YES    0:01:28
       12   1   14    0   -23.67375407   -0.22E-04* -0.24E-02   74  94 1 -0.77E-03*  0.47   2.22    LS   YES    0:01:27
       13   1   14    0   -23.67376333   -0.93E-05*  0.16E-02   93  97 1  0.39E-03*  0.47   0.99    QN   YES    0:02:09
       14   1   13    0   -23.67376878   -0.54E-05*  0.25E-02   93  97 1  0.36E-03*  0.47   2.50    LS   YES    0:02:29
       15   1   13    0   -23.67377212   -0.33E-05* -0.27E-02   77 110 1 -0.45E-03*  0.47   1.09    QN   YES    0:01:51
       16   1   13    0   -23.67377653   -0.44E-05* -0.50E-02   77 110 1 -0.26E-03*  0.47   2.08    QN   YES    0:01:56
       17   1   12    0   -23.67378103   -0.45E-05* -0.32E-02   74  94 1  0.39E-03*  0.47   1.42    QN   YES    0:02:00
       18   1   12    0   -23.67378304   -0.20E-05* -0.27E-02   74  94 1  0.36E-03*  0.47   1.78    QN   YES    0:02:02
       19   1   11    0   -23.67378434   -0.13E-05*  0.60E-03   74  94 1  0.20E-03*  0.47   1.34    QN   YES    0:02:10
       20   1   10    0   -23.67378468   -0.34E-06*  0.26E-03   74  94 1  0.73E-04   0.47   1.38    QN   YES    0:02:09
       21   1    9    0   -23.67378477   -0.93E-07* -0.12E-03   89 106 1 -0.31E-04   0.47   1.34    QN   YES    0:01:49
       22   1    8    0   -23.67378479   -0.23E-07* -0.62E-04   94 287 1  0.13E-04   0.47   1.42    QN   YES    0:01:58
       23   1    7    0   -23.67378480   -0.72E-08  -0.68E-04   95  98 1  0.10E-04   0.47   1.64    QN   YES    0:02:25
      Convergence after 23 iterations
       24   1    7    0   -23.67378480   -0.30E-08  -0.68E-04   95  98 1  0.89E-05   0.47   1.64    QN   YES    0:01:52
 
      ************************************************************************************************************************
                                                      Wave function printout:
                       occupation of active orbitals, and spin coupling of open shells (u,d: Spin up or down)
      ************************************************************************************************************************
 
      Note: transformation to natural orbitals
      has been made, which may change the order of the CSFs.
 
      printout of CI-coefficients larger than  0.05 for root  1
      energy=  -30023.702849
      conf/sym  11111     Coeff  Weight
             2  uu0u0   0.20253 0.04102
             6  u00uu   0.74201 0.55058
             7  0uuu0   0.60668 0.36806
            10  00uuu   0.20082 0.04033
 
      printout of CI-coefficients larger than  0.05 for root  2
      energy=  -30023.702741
      conf/sym  11111     Coeff  Weight
             4  u0uu0   0.64098 0.41085
             9  0u0uu  -0.76755 0.58913
 
      printout of CI-coefficients larger than  0.05 for root  3
      energy=  -30023.690163
      conf/sym  11111     Coeff  Weight
             2  uu0u0   0.84761 0.71845
             6  u00uu  -0.13794 0.01903
             7  0uuu0   0.05438 0.00296
            10  00uuu  -0.50946 0.25955
 
      printout of CI-coefficients larger than  0.05 for root  4
      energy=  -30023.670485
      conf/sym  11111     Coeff  Weight
             4  u0uu0   0.76755 0.58913
             9  0u0uu   0.64098 0.41085
 
      printout of CI-coefficients larger than  0.05 for root  5
      energy=  -30023.664858
      conf/sym  11111     Coeff  Weight
             2  uu0u0  -0.08090 0.00655
             6  u00uu  -0.63234 0.39985
             7  0uuu0   0.76138 0.57971
            10  00uuu   0.11787 0.01389
 
      printout of CI-coefficients larger than  0.05 for root  6
      energy=  -30023.611613
      conf/sym  11111     Coeff  Weight
             2  uu0u0   0.48370 0.23397
             6  u00uu  -0.17474 0.03053
             7  0uuu0  -0.22197 0.04927
            10  00uuu   0.82838 0.68621
 
      Natural orbitals and occupation numbers for root  1
      sym 1:   0.595263   0.404737   0.404737   1.000000   0.595263
 
      Natural orbitals and occupation numbers for root  2
      sym 1:   0.410859   0.589141   0.410859   1.000000   0.589141
 
      Natural orbitals and occupation numbers for root  3
      sym 1:   0.738714   0.738714   0.261286   1.000000   0.261286
 
      Natural orbitals and occupation numbers for root  4
      sym 1:   0.589141   0.410859   0.589141   1.000000   0.410859
 
      Natural orbitals and occupation numbers for root  5
      sym 1:   0.405508   0.594492   0.594492   1.000000   0.405508
 
      Natural orbitals and occupation numbers for root  6
      sym 1:   0.261560   0.261560   0.738440   1.000000   0.738440
 
      ************************************************************************************************************************
      *                                                                                                                      *
      *                                                    Final results                                                     *
      *                                                                                                                      *
      ************************************************************************************************************************
 
 
++    Wave function specifications:
      -----------------------------
 
      Number of closed shell electrons         180
      Number of electrons in active shells       3
      Max number of holes in RAS1 space          0
      Max nr of electrons in RAS3 space          0
      Number of inactive orbitals               90
      Number of active orbitals                  5
      Number of secondary orbitals             345
      Spin quantum number                      1.5
      State symmetry                             1
--
 
++    Orbital specifications:
      -----------------------
 
      Symmetry species                           1
                                                 a
      Frozen orbitals                            0
      Inactive orbitals                         90
      Active orbitals                            5
      RAS1 orbitals                              0
      RAS2 orbitals                              5
      RAS3 orbitals                              0
      Secondary orbitals                       345
      Deleted orbitals                           0
      Number of basis functions                440
--
 
++    CI expansion specifications:
      ----------------------------
 
      Number of CSFs                            10
      Number of determinants                    10
      Number of root(s) required                 6
      CI roots used                              1     2     3     4     5     6
      weights                                0.167 0.167 0.167 0.167 0.167 0.167
      highest root included in the CI            6
      Root passed to geometry opt.               6
--
 
++    Final optimization conditions:
      ------------------------------
 
      Average CI energy                          -30023.67378480
      RASSCF energy for state  6                 -30023.61161331
      Super-CI energy                                -0.00000000
      RASSCF energy change                           -0.00000000
      Max change in MO coefficients              -0.744E-04
      Max non-diagonal density matrix element    -0.676E-04
      Maximum BLB matrix element                  0.887E-05
      (orbital pair  95,  98 in symmetry   1)
      Norm of electronic gradient            0.109E+00
--
 
 
      Final state energy(ies):
      ------------------------
 
::    RASSCF root number  1 Total energy: -30023.70284919
::    RASSCF root number  2 Total energy: -30023.70274110
::    RASSCF root number  3 Total energy: -30023.69016254
::    RASSCF root number  4 Total energy: -30023.67048461
::    RASSCF root number  5 Total energy: -30023.66485807
::    RASSCF root number  6 Total energy: -30023.61161331
 
++    Molecular orbitals:
      -------------------
 
      Pseudonatural active orbitals and approximate occupation numbers
 
 
      MOLECULAR ORBITALS FOR SYMMETRY SPECIES 1: a  
 
      INDEX  ENERGY  OCCUPATION COEFFICIENTS ...
          1-4373.1664    2.0000                                                                                                           
                95 NP4    1s     ( 1.0000)
          2 -828.8514    2.0000                                                                                                           
                96 NP4    2s     ( 1.0000)
          3 -693.1978    2.0000                                                                                                           
               120 NP4    2pz    ( 1.0000)
          4 -693.1960    2.0000                                                                                                           
               104 NP4    2px    ( 0.4419) 112 NP4    2py    ( 0.8971)
          5 -693.1957    2.0000                                                                                                           
               104 NP4    2px    ( 0.8971) 112 NP4    2py    (-0.4419)
          6 -213.2813    2.0000                                                                                                           
                97 NP4    3s     ( 1.0000)
          7 -175.0082    2.0000                                                                                                           
               105 NP4    3px    ( 0.4419) 113 NP4    3py    ( 0.8971)
          8 -175.0073    2.0000                                                                                                           
               105 NP4    3px    ( 0.8971) 113 NP4    3py    (-0.4419)
          9 -175.0070    2.0000                                                                                                           
               121 NP4    3pz    ( 1.0000)
         10 -139.3660    2.0000                                                                                                           
               134 NP4    3d1-   ( 0.8970) 146 NP4    3d1+   ( 0.4418)
         11 -139.3657    2.0000                                                                                                           
               134 NP4    3d1-   (-0.4411) 146 NP4    3d1+   ( 0.8954)
         12 -139.3657    2.0000                                                                                                           
               128 NP4    3d2-   (-0.7869) 140 NP4    3d0    ( 0.1174) 152 NP4    3d2+   ( 0.6055)
         13 -139.3656    2.0000                                                                                                           
               128 NP4    3d2-   ( 0.6083) 152 NP4    3d2+   ( 0.7914)
         14 -139.3650    2.0000                                                                                                           
               140 NP4    3d0    ( 0.9931)
         15  -92.2587    2.0000                                                                                                           
                31 S2     1s     ( 1.0000)
         16  -92.2445    2.0000                                                                                                           
               245 S6     1s     ( 1.0000)
         17  -56.4191    2.0000                                                                                                           
                98 NP4    4s     ( 1.0000)
         18  -43.6495    2.0000                                                                                                           
               106 NP4    4px    ( 0.4419) 114 NP4    4py    ( 0.8971)
         19  -43.6482    2.0000                                                                                                           
               106 NP4    4px    ( 0.8971) 114 NP4    4py    (-0.4419)
         20  -43.6471    2.0000                                                                                                           
               122 NP4    4pz    ( 1.0000)
         21  -29.9939    2.0000                                                                                                           
               129 NP4    4d2-   (-0.3605) 141 NP4    4d0    ( 0.8902) 153 NP4    4d2+   ( 0.2772)
         22  -29.9938    2.0000                                                                                                           
               135 NP4    4d1-   ( 0.8966) 147 NP4    4d1+   ( 0.4417)
         23  -29.9933    2.0000                                                                                                           
               129 NP4    4d2-   ( 0.4986) 135 NP4    4d1-   (-0.2538) 147 NP4    4d1+   ( 0.5163) 153 NP4    4d2+   ( 0.6485)
      
         24  -29.9932    2.0000                                                                                                           
               129 NP4    4d2-   (-0.3506) 135 NP4    4d1-   (-0.3617) 147 NP4    4d1+   ( 0.7336) 153 NP4    4d2+   (-0.4561)
      
         25  -29.9927    2.0000                                                                                                           
               129 NP4    4d2-   (-0.7058) 141 NP4    4d0    (-0.4552) 153 NP4    4d2+   ( 0.5425)
         26  -20.4320    2.0000                                                                                                           
               215 O5     1s     (-0.7645) 279 O7     1s     ( 0.6439)
         27  -20.4320    2.0000                                                                                                           
               215 O5     1s     ( 0.6439) 279 O7     1s     ( 0.7645)
         28  -20.4124    2.0000                                                                                                           
                65 O3     1s     (-0.8215) 309 O8     1s     ( 0.5692)
         29  -20.4124    2.0000                                                                                                           
                65 O3     1s     ( 0.5692) 309 O8     1s     ( 0.8216)
         30  -20.3852    2.0000                                                                                                           
               369 O10    1s     ( 0.9996)
         31  -20.3850    2.0000                                                                                                           
               339 O9     1s     ( 0.9997)
         32  -15.8751    2.0000                                                                                                           
               170 NP4    4f0    ( 0.9963)
         33  -15.8722    2.0000                                                                                                           
               162 NP4    4f2-   ( 0.6093) 178 NP4    4f2+   ( 0.7928)
         34  -15.8718    2.0000                                                                                                           
               162 NP4    4f2-   (-0.7898) 178 NP4    4f2+   ( 0.6070)
         35  -15.8709    2.0000                                                                                                           
               158 NP4    4f3-   ( 0.9790) 182 NP4    4f3+   (-0.1960)
         36  -15.8708    2.0000                                                                                                           
               158 NP4    4f3-   ( 0.1962) 182 NP4    4f3+   ( 0.9797)
         37  -15.8619    2.0000                                                                                                           
               166 NP4    4f1-   ( 0.8965) 174 NP4    4f1+   ( 0.4416)
         38  -15.8615    2.0000                                                                                                           
               166 NP4    4f1-   (-0.4412) 174 NP4    4f1+   ( 0.8957)
         39  -13.1316    2.0000                                                                                                           
                99 NP4    5s     ( 1.0005)
         40  -11.1317    2.0000                                                                                                           
                 1 C1     1s     ( 1.0010)
         41   -9.0446    2.0000                                                                                                           
               123 NP4    5pz    ( 0.9995)
         42   -9.0224    2.0000                                                                                                           
               107 NP4    5px    ( 0.4418) 115 NP4    5py    ( 0.8970)
         43   -9.0203    2.0000                                                                                                           
               107 NP4    5px    ( 0.8970) 115 NP4    5py    (-0.4418)
         44   -8.9995    2.0000                                                                                                           
                32 S2     2s     ( 0.9991)
         45   -8.9890    2.0000                                                                                                           
               246 S6     2s     ( 0.9991)
         46   -6.6319    2.0000                                                                                                           
                36 S2     2px    ( 0.8976)  40 S2     2py    (-0.4419)
         47   -6.6318    2.0000                                                                                                           
                36 S2     2px    (-0.2443)  40 S2     2py    (-0.4959)  44 S2     2pz    ( 0.8338)
         48   -6.6299    2.0000                                                                                                           
                36 S2     2px    ( 0.3679)  40 S2     2py    ( 0.7476)  44 S2     2pz    ( 0.5524)
         49   -6.6205    2.0000                                                                                                           
               250 S6     2px    ( 0.8977) 254 S6     2py    (-0.4421)
         50   -6.6195    2.0000                                                                                                           
               258 S6     2pz    ( 0.9988)
         51   -6.6190    2.0000                                                                                                           
               250 S6     2px    ( 0.4412) 254 S6     2py    ( 0.8959)
         52   -4.3430    2.0000                                                                                                           
               142 NP4    5d0    ( 0.9975)
         53   -4.3341    2.0000                                                                                                           
               136 NP4    5d1-   ( 0.8969) 148 NP4    5d1+   ( 0.4414)
         54   -4.3340    2.0000                                                                                                           
               136 NP4    5d1-   (-0.4414) 148 NP4    5d1+   ( 0.8969)
         55   -4.3214    2.0000                                                                                                           
               130 NP4    5d2-   ( 0.7923) 154 NP4    5d2+   (-0.6090)
         56   -4.3202    2.0000                                                                                                           
               130 NP4    5d2-   ( 0.6093) 154 NP4    5d2+   ( 0.7928)
         57   -2.1195    2.0000                                                                                                           
               100 NP4    6s     ( 0.9656)
         58   -1.3256    2.0000                                                                                                           
               124 NP4    6pz    ( 0.5551) 340 O9     2s     ( 0.4189) 349 O9     2pz    (-0.1236) 370 O10    2s     (-0.4188)
               379 O10    2pz    (-0.1234)
         59   -1.2747    2.0000                                                                                                           
                33 S2     3s     ( 0.2168)  66 O3     2s     ( 0.3116) 116 NP4    6py    ( 0.1279) 216 O5     2s     (-0.3835)
               247 S6     3s     (-0.2596) 280 O7     2s     (-0.3835) 310 O8     2s     ( 0.3115)
         60   -1.2679    2.0000                                                                                                           
                33 S2     3s     ( 0.2780)  66 O3     2s     ( 0.3749) 216 O5     2s     ( 0.3221) 247 S6     3s     ( 0.2293)
               280 O7     2s     ( 0.3221) 310 O8     2s     ( 0.3748)
         61   -1.1708    2.0000                                                                                                           
               216 O5     2s     ( 0.5841) 251 S6     3px    ( 0.1843) 280 O7     2s     (-0.5842)
         62   -1.1607    2.0000                                                                                                           
                37 S2     3px    ( 0.1803)  66 O3     2s     (-0.5852) 216 O5     2s     (-0.1042) 280 O7     2s     ( 0.1041)
               310 O8     2s     ( 0.5853)
         63   -1.0812    2.0000                                                                                                           
               100 NP4    6s     (-0.2523) 143 NP4    6d0    ( 0.1346) 340 O9     2s     ( 0.6394) 370 O10    2s     ( 0.6497)
      
         64   -0.9929    2.0000                                                                                                           
                33 S2     3s     (-0.1284) 108 NP4    6px    ( 0.4082) 116 NP4    6py    ( 0.8291)
         65   -0.9903    2.0000                                                                                                           
               108 NP4    6px    ( 0.8581) 116 NP4    6py    (-0.4225)
         66   -0.8856    2.0000                                                                                                           
                 2 C1     2s     ( 0.6007)  33 S2     3s     ( 0.2860)  45 S2     3pz    (-0.1858)  66 O3     2s     (-0.2180)
               116 NP4    6py    ( 0.1243) 310 O8     2s     (-0.2180) 399 H11    1s     ( 0.1242) 427 H13    1s     ( 0.1242)
      
         67   -0.7741    2.0000                                                                                                           
               124 NP4    6pz    (-0.7065) 171 NP4    5f0    ( 0.1155) 340 O9     2s     ( 0.5728) 349 O9     2pz    ( 0.1716)
               370 O10    2s     (-0.5631) 379 O10    2pz    ( 0.1749)
         68   -0.7091    2.0000                                                                                                           
                33 S2     3s     (-0.1417) 216 O5     2s     ( 0.4458) 219 O5     2px    ( 0.2355) 247 S6     3s     (-0.7522)
               280 O7     2s     ( 0.4458) 286 O7     2py    ( 0.2355)
         69   -0.6945    2.0000                                                                                                           
                 2 C1     2s     ( 0.3041)  11 C1     2pz    (-0.1855)  33 S2     3s     (-0.6370)  66 O3     2s     ( 0.3855)
                69 O3     2px    (-0.2064) 116 NP4    6py    (-0.1035) 216 O5     2s     (-0.1064) 247 S6     3s     ( 0.1595)
               280 O7     2s     (-0.1064) 310 O8     2s     ( 0.3854) 316 O8     2py    (-0.2021) 399 H11    1s     ( 0.1001)
               427 H13    1s     ( 0.1001)
         70   -0.5153    2.0000                                                                                                           
                 5 C1     2px    ( 0.1494)   8 C1     2py    ( 0.3031)  33 S2     3s     ( 0.1230)  37 S2     3px    ( 0.1208)
                41 S2     3py    ( 0.2455)  45 S2     3pz    ( 0.2510)  72 O3     2py    ( 0.1793)  75 O3     2pz    ( 0.2511)
               313 O8     2px    ( 0.2025) 319 O8     2pz    ( 0.2512) 399 H11    1s     ( 0.1690) 413 H12    1s     (-0.2520)
               427 H13    1s     ( 0.1692)
         71   -0.5077    2.0000                                                                                                           
                 5 C1     2px    (-0.2681)   8 C1     2py    ( 0.1321)  37 S2     3px    (-0.2968)  41 S2     3py    ( 0.1461)
                66 O3     2s     (-0.2429)  69 O3     2px    ( 0.2723)  72 O3     2py    ( 0.2198) 216 O5     2s     (-0.1075)
               219 O5     2px    (-0.1395) 222 O5     2py    (-0.1141) 251 S6     3px    ( 0.1419) 280 O7     2s     ( 0.1075)
               286 O7     2py    ( 0.1801) 310 O8     2s     ( 0.2428) 316 O8     2py    (-0.3497) 399 H11    1s     (-0.2267)
               427 H13    1s     ( 0.2266)
         72   -0.4998    2.0000                                                                                                           
                 2 C1     2s     ( 0.1105)  11 C1     2pz    (-0.2708)  37 S2     3px    (-0.1146)  41 S2     3py    (-0.2325)
                45 S2     3pz    ( 0.3137)  66 O3     2s     (-0.1877)  69 O3     2px    ( 0.2755)  72 O3     2py    (-0.1736)
                75 O3     2pz    ( 0.2280) 222 O5     2py    ( 0.1347) 255 S6     3py    ( 0.1167) 283 O7     2px    ( 0.1629)
               310 O8     2s     (-0.1879) 313 O8     2px    (-0.3057) 316 O8     2py    ( 0.1131) 319 O8     2pz    ( 0.2276)
      
         73   -0.4945    2.0000                                                                                                           
                 5 C1     2px    ( 0.1379) 216 O5     2s     (-0.3029) 219 O5     2px    (-0.3854) 222 O5     2py    (-0.2649)
               251 S6     3px    ( 0.3821) 255 S6     3py    (-0.1883) 280 O7     2s     ( 0.3029) 286 O7     2py    ( 0.4670)
               316 O8     2py    ( 0.1001) 399 H11    1s     ( 0.1178) 427 H13    1s     (-0.1178)
         74   -0.4860    2.0000                                                                                                           
                11 C1     2pz    ( 0.1221)  41 S2     3py    ( 0.1366)  69 O3     2px    (-0.1093) 116 NP4    6py    ( 0.1153)
               216 O5     2s     (-0.1532) 219 O5     2px    (-0.2725) 222 O5     2py    ( 0.3592) 247 S6     3s     (-0.1810)
               251 S6     3px    ( 0.1833) 255 S6     3py    ( 0.3722) 280 O7     2s     (-0.1532) 283 O7     2px    ( 0.4508)
               413 H12    1s     (-0.1163)
         75   -0.4672    2.0000                                                                                                           
               225 O5     2pz    ( 0.5159) 259 S6     3pz    ( 0.3936) 289 O7     2pz    ( 0.5159)
         76   -0.4555    2.0000                                                                                                           
                 5 C1     2px    (-0.3641)   8 C1     2py    ( 0.1794)  37 S2     3px    ( 0.2690)  41 S2     3py    (-0.1325)
                66 O3     2s     ( 0.1950)  69 O3     2px    (-0.2877)  72 O3     2py    (-0.1774) 310 O8     2s     (-0.1950)
               316 O8     2py    ( 0.3362) 399 H11    1s     (-0.3297) 427 H13    1s     ( 0.3296)
         77   -0.4376    2.0000                                                                                                           
                 5 C1     2px    (-0.1720)   8 C1     2py    (-0.3492)  11 C1     2pz    (-0.1615)  33 S2     3s     ( 0.1335)
                41 S2     3py    ( 0.1779)  45 S2     3pz    ( 0.1687)  69 O3     2px    (-0.1013)  72 O3     2py    ( 0.2959)
                75 O3     2pz    ( 0.1732) 313 O8     2px    ( 0.2961) 316 O8     2py    ( 0.1001) 319 O8     2pz    ( 0.1734)
               399 H11    1s     (-0.1620) 413 H12    1s     ( 0.3930) 427 H13    1s     (-0.1623)
         78   -0.3793    2.0000                                                                                                           
                75 O3     2pz    (-0.2661) 149 NP4    6d1+   ( 0.1960) 225 O5     2pz    ( 0.2478) 289 O7     2pz    (-0.2478)
               319 O8     2pz    ( 0.2664) 343 O9     2px    ( 0.4270) 346 O9     2py    (-0.2103) 373 O10    2px    (-0.4332)
               376 O10    2py    ( 0.2133)
         79   -0.3717    2.0000                                                                                                           
                11 C1     2pz    ( 0.1146)  41 S2     3py    ( 0.2023)  69 O3     2px    (-0.1043)  72 O3     2py    (-0.2020)
                75 O3     2pz    ( 0.1728) 143 NP4    6d0    (-0.2517) 247 S6     3s     ( 0.1292) 255 S6     3py    (-0.1807)
               286 O7     2py    ( 0.1264) 316 O8     2py    (-0.2059) 319 O8     2pz    ( 0.1719) 340 O9     2s     ( 0.1546)
               346 O9     2py    ( 0.1842) 349 O9     2pz    ( 0.4130) 370 O10    2s     ( 0.1459) 373 O10    2px    (-0.1024)
               376 O10    2py    (-0.2079) 379 O10    2pz    (-0.3636)
         80   -0.3610    2.0000                                                                                                           
                45 S2     3pz    (-0.1185) 137 NP4    6d1-   ( 0.1790) 143 NP4    6d0    ( 0.1453) 225 O5     2pz    ( 0.1044)
               289 O7     2pz    ( 0.1020) 343 O9     2px    ( 0.2153) 346 O9     2py    ( 0.4366) 349 O9     2pz    (-0.2517)
               373 O10    2px    (-0.2439) 376 O10    2py    (-0.4952) 379 O10    2pz    ( 0.2918)
         81   -0.3539    2.0000                                                                                                           
                72 O3     2py    (-0.1808)  75 O3     2pz    (-0.4428) 222 O5     2py    ( 0.1182) 225 O5     2pz    (-0.4429)
               283 O7     2px    (-0.1281) 289 O7     2pz    ( 0.4434) 313 O8     2px    ( 0.1755) 319 O8     2pz    ( 0.4430)
      
         82   -0.3463    2.0000                                                                                                           
               216 O5     2s     ( 0.1352) 219 O5     2px    ( 0.3133) 222 O5     2py    (-0.5642) 225 O5     2pz    (-0.1487)
               251 S6     3px    (-0.1288) 270 S6     3d2+   (-0.1103) 280 O7     2s     (-0.1352) 283 O7     2px    ( 0.6381)
               289 O7     2pz    ( 0.1496) 313 O8     2px    (-0.1086) 343 O9     2px    ( 0.1028)
         83   -0.3396    2.0000                                                                                                           
                72 O3     2py    ( 0.2164)  75 O3     2pz    ( 0.3081) 149 NP4    6d1+   ( 0.1101) 222 O5     2py    ( 0.1007)
               225 O5     2pz    (-0.4095) 283 O7     2px    (-0.1014) 289 O7     2pz    ( 0.4094) 313 O8     2px    (-0.2186)
               319 O8     2pz    (-0.3086) 343 O9     2px    ( 0.2545) 346 O9     2py    (-0.1245) 373 O10    2px    (-0.3810)
               376 O10    2py    ( 0.1882)
         84   -0.3371    2.0000                                                                                                           
                11 C1     2pz    ( 0.1334)  37 S2     3px    ( 0.1273)  41 S2     3py    ( 0.2585)  52 S2     3d0    ( 0.1170)
                69 O3     2px    (-0.1126)  72 O3     2py    (-0.3226)  75 O3     2pz    ( 0.2619) 100 NP4    6s     (-0.1690)
               143 NP4    6d0    ( 0.1066) 313 O8     2px    (-0.1867) 316 O8     2py    (-0.2857) 319 O8     2pz    ( 0.2615)
               343 O9     2px    (-0.1636) 346 O9     2py    (-0.3336) 349 O9     2pz    (-0.2676) 370 O10    2s     (-0.1018)
               379 O10    2pz    ( 0.3667)
         85   -0.3309    2.0000                                                                                                           
                66 O3     2s     (-0.1041)  69 O3     2px    ( 0.2758)  72 O3     2py    (-0.4438)  75 O3     2pz    ( 0.2523)
               175 NP4    5f1+   ( 0.1269) 310 O8     2s     ( 0.1040) 313 O8     2px    ( 0.5207) 319 O8     2pz    (-0.2524)
               343 O9     2px    ( 0.3681) 346 O9     2py    (-0.1808) 373 O10    2px    ( 0.1767)
         86   -0.3269    2.0000                                                                                                           
               100 NP4    6s     ( 0.1206) 116 NP4    6py    ( 0.1171) 167 NP4    5f1-   (-0.1824) 219 O5     2px    (-0.1407)
               222 O5     2py    (-0.2970) 247 S6     3s     (-0.1751) 251 S6     3px    ( 0.1616) 255 S6     3py    ( 0.3281)
               283 O7     2px    (-0.1495) 286 O7     2py    (-0.2927) 343 O9     2px    (-0.2015) 346 O9     2py    (-0.4102)
               349 O9     2pz    ( 0.1878) 373 O10    2px    (-0.2043) 376 O10    2py    (-0.4135) 379 O10    2pz    (-0.2008)
      
         87   -0.3196    2.0000                                                                                                           
                69 O3     2px    (-0.1449)  72 O3     2py    ( 0.2760) 108 NP4    6px    (-0.2470) 116 NP4    6py    ( 0.1215)
               175 NP4    5f1+   ( 0.1964) 222 O5     2py    ( 0.1337) 283 O7     2px    (-0.1393) 313 O8     2px    (-0.3073)
               343 O9     2px    ( 0.4665) 346 O9     2py    (-0.2296) 373 O10    2px    ( 0.5010) 376 O10    2py    (-0.2465)
      
         88   -0.3142    2.0000                                                                                                           
                72 O3     2py    ( 0.1521)  75 O3     2pz    (-0.1003) 108 NP4    6px    ( 0.1358) 116 NP4    6py    ( 0.2760)
               167 NP4    5f1-   (-0.1194) 219 O5     2px    ( 0.1535) 222 O5     2py    ( 0.3665) 247 S6     3s     ( 0.2185)
               251 S6     3px    (-0.1570) 255 S6     3py    (-0.3188) 283 O7     2px    ( 0.1967) 286 O7     2py    ( 0.3450)
               313 O8     2px    ( 0.1029) 316 O8     2py    ( 0.1152) 343 O9     2px    (-0.1549) 346 O9     2py    (-0.3147)
               349 O9     2pz    (-0.1094) 373 O10    2px    (-0.1919) 376 O10    2py    (-0.3906)
         89   -0.2903    2.0000                                                                                                           
                41 S2     3py    (-0.1215) 124 NP4    6pz    ( 0.4431) 171 NP4    5f0    (-0.6315) 349 O9     2pz    ( 0.5061)
               379 O10    2pz    ( 0.4524)
         90   -0.2343    2.0000                                                                                                           
                11 C1     2pz    ( 0.3002)  33 S2     3s     (-0.3013)  37 S2     3px    (-0.1987)  41 S2     3py    (-0.4038)
                45 S2     3pz    (-0.4690)  69 O3     2px    ( 0.1176)  72 O3     2py    ( 0.2461)  75 O3     2pz    ( 0.4300)
               124 NP4    6pz    (-0.1215) 171 NP4    5f0    ( 0.1217) 313 O8     2px    ( 0.1230) 316 O8     2py    ( 0.2434)
               319 O8     2pz    ( 0.4301) 379 O10    2pz    (-0.1370) 413 H12    1s     (-0.1058)
         91    0.0000    0.5000                                                                                                           
               163 NP4    5f2-   ( 0.6060) 179 NP4    5f2+   ( 0.7886)
         92    0.0000    0.5000                                                                                                           
               163 NP4    5f2-   ( 0.7713) 179 NP4    5f2+   (-0.5924) 183 NP4    5f3+   (-0.2163)
         93    0.0000    0.5000                                                                                                           
               159 NP4    5f3-   ( 0.9716) 183 NP4    5f3+   (-0.1924)
         94    0.0000    1.0000                                                                                                           
               225 O5     2pz    ( 0.4748) 226 O5     3pz    ( 0.1024) 259 S6     3pz    (-1.0225) 264 S6     3d1-   ( 0.1151)
               289 O7     2pz    ( 0.4748) 290 O7     3pz    ( 0.1024)
         95    0.0000    0.5000                                                                                                           
               159 NP4    5f3-   ( 0.1901) 163 NP4    5f2-   ( 0.1742) 179 NP4    5f2+   (-0.1335) 183 NP4    5f3+   ( 0.9554)
      
         96    0.1419    0.0000                                                                                                           
                 1 C1     1s     (-0.4852)   2 C1     2s     (-2.8765)   3 C1     3s     (-1.4925)   4 C1     4s     (-0.2001)
                 5 C1     2px    (-0.3049)   6 C1     3px    (-0.1825)   8 C1     2py    (-0.6185)   9 C1     3py    (-0.3701)
                11 C1     2pz    ( 0.3331)  12 C1     3pz    ( 0.1915)  18 C1     3d0    ( 0.1126)  37 S2     3px    (-0.1278)
                38 S2     4px    (-0.1258)  41 S2     3py    (-0.2594)  42 S2     4py    (-0.2552)  46 S2     4pz    ( 0.1049)
                73 O3     3py    (-0.1142) 100 NP4    6s     (-0.1355) 101 NP4    7s     (-0.3581) 109 NP4    7px    (-0.2275)
               116 NP4    6py    (-0.1918) 117 NP4    7py    (-0.4617) 118 NP4    8py    (-0.1134) 143 NP4    6d0    ( 0.1189)
               399 H11    1s     ( 1.8929) 400 H11    2s     ( 1.5841) 401 H11    3s     ( 0.1100) 402 H11    2px    (-0.4553)
               403 H11    3px    (-0.2862) 406 H11    2pz    ( 0.1211) 413 H12    1s     (-0.4538) 414 H12    2s     (-0.7045)
               415 H12    3s     (-0.2003) 427 H13    1s     ( 1.8942) 428 H13    2s     ( 1.5853) 429 H13    3s     ( 0.1101)
               430 H13    2px    ( 0.2292) 431 H13    3px    ( 0.1399) 432 H13    2py    (-0.3982) 433 H13    3py    (-0.2535)
               434 H13    2pz    ( 0.1215)
--
 
      Von Neumann Entropy (Root  1) =  2.47365
 

      Mulliken population analysis for root number:  1
      -----------------------------------------------
 
 
++    Molecular charges:
      ------------------
 
      Mulliken charges per centre and basis function type
      ---------------------------------------------------
 
                C1      S2      O3      NP4     O5      S6      O7      O8      O9      O10     H11     H12   
      1s       2.0019  2.0000  1.9990  2.0000  1.9990  2.0000  1.9990  1.9990  1.9995  1.9995  0.8692  0.8009
      2s       1.3325  1.9988  1.8687  2.0000  1.8688  1.9986  1.8688  1.8687  1.8937  1.8967 -0.0139 -0.0088
      2px      0.9993  2.0013  1.2488  2.0000  1.2616  2.0015  1.6698  1.6700  1.6717  1.6806  0.0017  0.0069
      2pz      0.8916  2.0006  1.8298  2.0000  1.7487  2.0001  1.7488  1.8298  1.4073  1.4227  0.0161  0.0126
      2py      1.0104  2.0005  1.7553  2.0000  1.7652  2.0005  1.3570  1.3343  1.6850  1.6934  0.0114 -0.0000
      3s       0.0327  1.5808  0.0023  2.0000  0.0005  1.6848  0.0005  0.0023  0.0093  0.0090 -0.0048 -0.0059
      3px     -0.0110  0.7561 -0.0024  2.0000 -0.0006  0.7450 -0.0019 -0.0030  0.0041  0.0037 -0.0083 -0.0051
      3pz     -0.0055  1.1077 -0.0142  2.0000 -0.0215  1.2993 -0.0215 -0.0142 -0.0116 -0.0126  0.0007  0.0006
      3py     -0.0131  1.0704 -0.0104  2.0000 -0.0093  1.0224 -0.0080 -0.0097  0.0022 -0.0007 -0.0009 -0.0143
      4s       0.0065  0.0135  0.0059  2.0001  0.0054  0.0050  0.0054  0.0059  0.0048  0.0045  0.0000  0.0000
      3d2+     0.0160  0.1744  0.0105  2.0000  0.0105  0.1696  0.0081  0.0079  0.0003  0.0003  0.0002  0.0014
      3d1+     0.0073  0.1206  0.0081  2.0000  0.0097  0.1086  0.0034  0.0032  0.0099  0.0095  0.0020  0.0004
      3d0      0.0250  0.1596  0.0032  2.0000  0.0031  0.0464  0.0031  0.0032  0.0098  0.0097  0.0004  0.0012
      3d1-     0.0124  0.1087  0.0009  2.0000  0.0007  0.0804  0.0070  0.0058  0.0098  0.0095  0.0001  0.0008
      3d2-     0.0138  0.1788  0.0077  2.0000  0.0079  0.1742  0.0103  0.0103  0.0002  0.0003  0.0024  0.0008
      4px     -0.0010  0.0199  0.0014  2.0000  0.0013  0.0212  0.0011  0.0011  0.0006  0.0002  0.0000  0.0000
      4pz     -0.0005 -0.0050 -0.0001  2.0000 -0.0013 -0.0271 -0.0013 -0.0001  0.0001  0.0008  0.0000  0.0000
      4py     -0.0013 -0.0049  0.0002  2.0000  0.0003  0.0012  0.0005  0.0004  0.0002 -0.0009  0.0000  0.0000
      5s       0.0000  0.0060  0.0000  2.0009  0.0000  0.0044  0.0000  0.0000  0.0000  0.0000  0.0000  0.0000
      4d2+    -0.0005  0.0013  0.0016  2.0000  0.0017 -0.0003  0.0012  0.0008 -0.0000 -0.0001  0.0000  0.0000
      4d1+     0.0009  0.0001  0.0013  2.0000  0.0017 -0.0005  0.0007  0.0006  0.0017  0.0016  0.0000  0.0000
      4d0      0.0008  0.0028  0.0000  2.0000  0.0003 -0.0018  0.0003  0.0000 -0.0016 -0.0015  0.0000  0.0000
      4d1-     0.0013  0.0008  0.0002  2.0000  0.0001  0.0009  0.0011  0.0010  0.0017  0.0016  0.0000  0.0000
      4d2-    -0.0003  0.0011  0.0012  2.0000  0.0015 -0.0003  0.0020  0.0020 -0.0000 -0.0000  0.0000  0.0000
      5px      0.0000 -0.0023  0.0000  1.9999  0.0000 -0.0027  0.0000  0.0000  0.0000  0.0000  0.0000  0.0000
      5pz      0.0000 -0.0002  0.0000  1.9994  0.0000  0.0006  0.0000  0.0000  0.0000  0.0000  0.0000  0.0000
      5py      0.0000 -0.0019  0.0000  1.9998  0.0000 -0.0028  0.0000  0.0000  0.0000  0.0000  0.0000  0.0000
      6s       0.0000  0.0000  0.0000  1.9768  0.0000  0.0000  0.0000  0.0000  0.0000  0.0000  0.0000  0.0000
      4f3+     0.0026  0.0208  0.0007  2.0000  0.0007  0.0212  0.0006  0.0006  0.0000  0.0000  0.0000  0.0000
      4f2+     0.0003  0.0151  0.0006  2.0000  0.0007  0.0140  0.0002  0.0002  0.0001  0.0001  0.0000  0.0000
      4f1+     0.0012  0.0100  0.0005  2.0000  0.0005  0.0043  0.0002  0.0002  0.0011  0.0011  0.0000  0.0000
      4f0      0.0021  0.0258  0.0006  2.0000  0.0006  0.0130  0.0006  0.0006  0.0013  0.0013  0.0000  0.0000
      4f1-     0.0016  0.0083  0.0002  2.0000  0.0002  0.0030  0.0004  0.0005  0.0011  0.0011  0.0000  0.0000
      4f2-     0.0003  0.0097  0.0001  2.0000  0.0001  0.0090  0.0006  0.0005  0.0001  0.0001  0.0000  0.0000
      4f3-     0.0001  0.0357  0.0009  2.0000  0.0009  0.0360  0.0011  0.0010 -0.0000 -0.0000  0.0000  0.0000
      5d2+     0.0000  0.0000  0.0000  1.9998  0.0000  0.0000  0.0000  0.0000  0.0000  0.0000  0.0000  0.0000
      5d1+     0.0000  0.0000  0.0000  1.9993  0.0000  0.0000  0.0000  0.0000  0.0000  0.0000  0.0000  0.0000
      5d0      0.0000  0.0000  0.0000  1.9969  0.0000  0.0000  0.0000  0.0000  0.0000  0.0000  0.0000  0.0000
      5d1-     0.0000  0.0000  0.0000  1.9993  0.0000  0.0000  0.0000  0.0000  0.0000  0.0000  0.0000  0.0000
      5d2-     0.0000  0.0000  0.0000  1.9998  0.0000  0.0000  0.0000  0.0000  0.0000  0.0000  0.0000  0.0000
      6px      0.0000  0.0000  0.0000  1.9780  0.0000  0.0000  0.0000  0.0000  0.0000  0.0000  0.0000  0.0000
      6pz      0.0000  0.0000  0.0000  1.8064  0.0000  0.0000  0.0000  0.0000  0.0000  0.0000  0.0000  0.0000
      6py      0.0000  0.0000  0.0000  1.9754  0.0000  0.0000  0.0000  0.0000  0.0000  0.0000  0.0000  0.0000
      7s       0.0000  0.0000  0.0000  0.1035  0.0000  0.0000  0.0000  0.0000  0.0000  0.0000  0.0000  0.0000
      5f3+     0.0000  0.0000  0.0000  0.5885  0.0000  0.0000  0.0000  0.0000  0.0000  0.0000  0.0000  0.0000
      5f2+     0.0000  0.0000  0.0000  0.5250  0.0000  0.0000  0.0000  0.0000  0.0000  0.0000  0.0000  0.0000
      5f1+     0.0000  0.0000  0.0000  0.2281  0.0000  0.0000  0.0000  0.0000  0.0000  0.0000  0.0000  0.0000
      5f0      0.0000  0.0000  0.0000  1.0201  0.0000  0.0000  0.0000  0.0000  0.0000  0.0000  0.0000  0.0000
      5f1-     0.0000  0.0000  0.0000  0.2263  0.0000  0.0000  0.0000  0.0000  0.0000  0.0000  0.0000  0.0000
      5f2-     0.0000  0.0000  0.0000  0.4762  0.0000  0.0000  0.0000  0.0000  0.0000  0.0000  0.0000  0.0000
      5f3-     0.0000  0.0000  0.0000  0.4267  0.0000  0.0000  0.0000  0.0000  0.0000  0.0000  0.0000  0.0000
      6d2+     0.0000  0.0000  0.0000  0.0815  0.0000  0.0000  0.0000  0.0000  0.0000  0.0000  0.0000  0.0000
      6d1+     0.0000  0.0000  0.0000  0.3336  0.0000  0.0000  0.0000  0.0000  0.0000  0.0000  0.0000  0.0000
      6d0      0.0000  0.0000  0.0000  0.4022  0.0000  0.0000  0.0000  0.0000  0.0000  0.0000  0.0000  0.0000
      6d1-     0.0000  0.0000  0.0000  0.3270  0.0000  0.0000  0.0000  0.0000  0.0000  0.0000  0.0000  0.0000
      6d2-     0.0000  0.0000  0.0000  0.0692  0.0000  0.0000  0.0000  0.0000  0.0000  0.0000  0.0000  0.0000
      7px      0.0000  0.0000  0.0000  0.0140  0.0000  0.0000  0.0000  0.0000  0.0000  0.0000  0.0000  0.0000
      7pz      0.0000  0.0000  0.0000  0.0219  0.0000  0.0000  0.0000  0.0000  0.0000  0.0000  0.0000  0.0000
      7py      0.0000  0.0000  0.0000  0.0463  0.0000  0.0000  0.0000  0.0000  0.0000  0.0000  0.0000  0.0000
      5g4+     0.0000  0.0000  0.0000  0.0019  0.0000  0.0000  0.0000  0.0000  0.0000  0.0000  0.0000  0.0000
      5g3+     0.0000  0.0000  0.0000  0.0001  0.0000  0.0000  0.0000  0.0000  0.0000  0.0000  0.0000  0.0000
      5g2+     0.0000  0.0000  0.0000  0.0007  0.0000  0.0000  0.0000  0.0000  0.0000  0.0000  0.0000  0.0000
      5g1+     0.0000  0.0000  0.0000  0.0132  0.0000  0.0000  0.0000  0.0000  0.0000  0.0000  0.0000  0.0000
      5g0      0.0000  0.0000  0.0000  0.0148  0.0000  0.0000  0.0000  0.0000  0.0000  0.0000  0.0000  0.0000
      5g1-     0.0000  0.0000  0.0000  0.0139  0.0000  0.0000  0.0000  0.0000  0.0000  0.0000  0.0000  0.0000
      5g2-     0.0000  0.0000  0.0000  0.0006  0.0000  0.0000  0.0000  0.0000  0.0000  0.0000  0.0000  0.0000
      5g3-     0.0000  0.0000  0.0000  0.0008  0.0000  0.0000  0.0000  0.0000  0.0000  0.0000  0.0000  0.0000
      5g4-     0.0000  0.0000  0.0000  0.0013  0.0000  0.0000  0.0000  0.0000  0.0000  0.0000  0.0000  0.0000
      6f3+     0.0000  0.0000  0.0000  0.0102  0.0000  0.0000  0.0000  0.0000  0.0000  0.0000  0.0000  0.0000
      6f2+     0.0000  0.0000  0.0000  0.0069  0.0000  0.0000  0.0000  0.0000  0.0000  0.0000  0.0000  0.0000
      6f1+     0.0000  0.0000  0.0000  0.0713  0.0000  0.0000  0.0000  0.0000  0.0000  0.0000  0.0000  0.0000
      6f0      0.0000  0.0000  0.0000  0.0343  0.0000  0.0000  0.0000  0.0000  0.0000  0.0000  0.0000  0.0000
      6f1-     0.0000  0.0000  0.0000  0.0756  0.0000  0.0000  0.0000  0.0000  0.0000  0.0000  0.0000  0.0000
      6f2-     0.0000  0.0000  0.0000  0.0055  0.0000  0.0000  0.0000  0.0000  0.0000  0.0000  0.0000  0.0000
      6f3-     0.0000  0.0000  0.0000  0.0238  0.0000  0.0000  0.0000  0.0000  0.0000  0.0000  0.0000  0.0000
      6g4+     0.0000  0.0000  0.0000  0.0031  0.0000  0.0000  0.0000  0.0000  0.0000  0.0000  0.0000  0.0000
      6g3+     0.0000  0.0000  0.0000  0.0001  0.0000  0.0000  0.0000  0.0000  0.0000  0.0000  0.0000  0.0000
      6g2+     0.0000  0.0000  0.0000  0.0011  0.0000  0.0000  0.0000  0.0000  0.0000  0.0000  0.0000  0.0000
      6g1+     0.0000  0.0000  0.0000  0.0110  0.0000  0.0000  0.0000  0.0000  0.0000  0.0000  0.0000  0.0000
      6g0      0.0000  0.0000  0.0000  0.0035  0.0000  0.0000  0.0000  0.0000  0.0000  0.0000  0.0000  0.0000
      6g1-     0.0000  0.0000  0.0000  0.0119  0.0000  0.0000  0.0000  0.0000  0.0000  0.0000  0.0000  0.0000
      6g2-     0.0000  0.0000  0.0000  0.0009  0.0000  0.0000  0.0000  0.0000  0.0000  0.0000  0.0000  0.0000
      6g3-     0.0000  0.0000  0.0000  0.0017  0.0000  0.0000  0.0000  0.0000  0.0000  0.0000  0.0000  0.0000
      6g4-     0.0000  0.0000  0.0000  0.0024  0.0000  0.0000  0.0000  0.0000  0.0000  0.0000  0.0000  0.0000
      6h5+     0.0000  0.0000  0.0000  0.0002  0.0000  0.0000  0.0000  0.0000  0.0000  0.0000  0.0000  0.0000
      6h4+     0.0000  0.0000  0.0000  0.0001  0.0000  0.0000  0.0000  0.0000  0.0000  0.0000  0.0000  0.0000
      6h3+     0.0000  0.0000  0.0000  0.0000  0.0000  0.0000  0.0000  0.0000  0.0000  0.0000  0.0000  0.0000
      6h2+     0.0000  0.0000  0.0000  0.0000  0.0000  0.0000  0.0000  0.0000  0.0000  0.0000  0.0000  0.0000
      6h1+     0.0000  0.0000  0.0000  0.0026  0.0000  0.0000  0.0000  0.0000  0.0000  0.0000  0.0000  0.0000
      6h0      0.0000  0.0000  0.0000  0.0027  0.0000  0.0000  0.0000  0.0000  0.0000  0.0000  0.0000  0.0000
      6h1-     0.0000  0.0000  0.0000  0.0027  0.0000  0.0000  0.0000  0.0000  0.0000  0.0000  0.0000  0.0000
      6h2-     0.0000  0.0000  0.0000  0.0000  0.0000  0.0000  0.0000  0.0000  0.0000  0.0000  0.0000  0.0000
      6h3-     0.0000  0.0000  0.0000  0.0001  0.0000  0.0000  0.0000  0.0000  0.0000  0.0000  0.0000  0.0000
      6h4-     0.0000  0.0000  0.0000  0.0000  0.0000  0.0000  0.0000  0.0000  0.0000  0.0000  0.0000  0.0000
      6h5-     0.0000  0.0000  0.0000  0.0002  0.0000  0.0000  0.0000  0.0000  0.0000  0.0000  0.0000  0.0000
      7d2+     0.0000  0.0000  0.0000 -0.0023  0.0000  0.0000  0.0000  0.0000  0.0000  0.0000  0.0000  0.0000
      7d1+     0.0000  0.0000  0.0000 -0.0180  0.0000  0.0000  0.0000  0.0000  0.0000  0.0000  0.0000  0.0000
      7d0      0.0000  0.0000  0.0000  0.0815  0.0000  0.0000  0.0000  0.0000  0.0000  0.0000  0.0000  0.0000
      7d1-     0.0000  0.0000  0.0000 -0.0158  0.0000  0.0000  0.0000  0.0000  0.0000  0.0000  0.0000  0.0000
      7d2-     0.0000  0.0000  0.0000  0.0003  0.0000  0.0000  0.0000  0.0000  0.0000  0.0000  0.0000  0.0000
      7f3+     0.0000  0.0000  0.0000  0.0029  0.0000  0.0000  0.0000  0.0000  0.0000  0.0000  0.0000  0.0000
      7f2+     0.0000  0.0000  0.0000  0.0020  0.0000  0.0000  0.0000  0.0000  0.0000  0.0000  0.0000  0.0000
      7f1+     0.0000  0.0000  0.0000  0.0065  0.0000  0.0000  0.0000  0.0000  0.0000  0.0000  0.0000  0.0000
      7f0      0.0000  0.0000  0.0000  0.0035  0.0000  0.0000  0.0000  0.0000  0.0000  0.0000  0.0000  0.0000
      7f1-     0.0000  0.0000  0.0000  0.0074  0.0000  0.0000  0.0000  0.0000  0.0000  0.0000  0.0000  0.0000
      7f2-     0.0000  0.0000  0.0000  0.0016  0.0000  0.0000  0.0000  0.0000  0.0000  0.0000  0.0000  0.0000
[...]
--
 
 --------------------------------------------------
 
 A comparison between the dipole oscillator strengths in 
 length and velocity gauge will be performed
 
 All dipole oscillator differences above the tolerance of 
  0.100000000000000       will be printed 
 
 Due to basis set deficiency these oscillator may be problematic 
 
 The tolerance is defined as ABS(1-O_l/O_v) 
 O_l : dipole oscillator strength in length gauge
 O_p : dipole oscillator strength in velocity gauge
 
 --------------------------------------------------
 
  Problematic transitions have been found
 
      From   To      Difference (%)  Osc. st. (len.) Osc. st. (vel.)
      --------------------------------------------------------------
 
         1    2      --------------- below threshold  2.30111040E-04
         4    5      --------------- below threshold  1.07558765E-04
         7    8      --------------- below threshold  2.18750813E-04
        10   12      --------------- below threshold  4.06238502E-05
        11   14      --------------- below threshold  2.03256198E-05
        13   14      --------------- below threshold  7.79953766E-05
        17   18      --------------- below threshold  1.02641615E-04
      --------------------------------------------------------------
 
 Number of problematic transitions =                      7
 
 
 
 
      ****************************************************************************************************
      *                                                                                                  *
      *                                         Spin-orbit section                                       *
      *                                                                                                  *
      ****************************************************************************************************
 
 
 Complex SO-Hamiltonian matrix elements over
 spin components of spin-free eigenstates (SFS):
 (In cm-1. Print threshold:   2000.000 cm-1)
 ----------------------------------------------------------------------
 
  I1  S1  MS1    I2  S2  MS2    Real part    Imag part      Absolute
     5  1.5 -1.5    1  1.5 -1.5         0.000     -5137.428      5137.428
     8  1.5  1.5    4  1.5  1.5         0.000      5137.428      5137.428
    25  0.5 -0.5    2  1.5 -0.5         0.000      2540.979      2540.979
    26  0.5  0.5    3  1.5  0.5         0.000      2540.979      2540.979
    27  0.5 -0.5    6  1.5 -0.5         0.000     -2408.263      2408.263
    27  0.5 -0.5   25  0.5 -0.5         0.000      3592.691      3592.691
    28  0.5  0.5    7  1.5  0.5         0.000     -2408.263      2408.263
    28  0.5  0.5   26  0.5  0.5         0.000     -3592.691      3592.691
    33  0.5 -0.5   10  1.5 -0.5         0.000     -3874.892      3874.892
    33  0.5 -0.5   29  0.5 -0.5         0.000     -2897.532      2897.532
    34  0.5  0.5   11  1.5  0.5         0.000     -3874.892      3874.892
    34  0.5  0.5   30  0.5  0.5         0.000      2897.532      2897.532
    37  0.5 -0.5   14  1.5 -0.5         0.000      4400.469      4400.469
    37  0.5 -0.5   31  0.5 -0.5         0.000      3187.891      3187.891
    38  0.5  0.5   15  1.5  0.5         0.000      4400.469      4400.469
    38  0.5  0.5   32  0.5  0.5         0.000     -3187.891      3187.891
    39  0.5 -0.5   18  1.5 -0.5         0.000     -4171.698      4171.698
    39  0.5 -0.5   35  0.5 -0.5         0.000     -3086.144      3086.144
    40  0.5  0.5   19  1.5  0.5         0.000     -4171.698      4171.698
    40  0.5  0.5   36  0.5  0.5         0.000      3086.144      3086.144
 ----------------------------------------------------------------------
 
       Total energies including SO-coupling:
::    SO-RASSI State    1     Total energy: -30026.34091943
::    SO-RASSI State    2     Total energy: -30026.34091943
::    SO-RASSI State    3     Total energy: -30026.33982776
::    SO-RASSI State    4     Total energy: -30026.33982776
::    SO-RASSI State    5     Total energy: -30026.32236288
::    SO-RASSI State    6     Total energy: -30026.32236288
::    SO-RASSI State    7     Total energy: -30026.31887793
::    SO-RASSI State    8     Total energy: -30026.31887793
::    SO-RASSI State    9     Total energy: -30026.31529888
::    SO-RASSI State   10     Total energy: -30026.31529888
::    SO-RASSI State   11     Total energy: -30026.31057610
::    SO-RASSI State   12     Total energy: -30026.31057610
::    SO-RASSI State   13     Total energy: -30026.30711128
::    SO-RASSI State   14     Total energy: -30026.30711128
::    SO-RASSI State   15     Total energy: -30026.29361019
::    SO-RASSI State   16     Total energy: -30026.29361019
::    SO-RASSI State   17     Total energy: -30026.29218454
::    SO-RASSI State   18     Total energy: -30026.29218454
::    SO-RASSI State   19     Total energy: -30026.28777651
::    SO-RASSI State   20     Total energy: -30026.28777651
::    SO-RASSI State   21     Total energy: -30026.28490609
::    SO-RASSI State   22     Total energy: -30026.28490609
::    SO-RASSI State   23     Total energy: -30026.27774385
::    SO-RASSI State   24     Total energy: -30026.27774385
::    SO-RASSI State   25     Total energy: -30026.27454152
::    SO-RASSI State   26     Total energy: -30026.27454152
::    SO-RASSI State   27     Total energy: -30026.27035503
::    SO-RASSI State   28     Total energy: -30026.27035503
::    SO-RASSI State   29     Total energy: -30026.26868023
::    SO-RASSI State   30     Total energy: -30026.26868023
::    SO-RASSI State   31     Total energy: -30026.25934654
::    SO-RASSI State   32     Total energy: -30026.25934654
::    SO-RASSI State   33     Total energy: -30026.25619109
::    SO-RASSI State   34     Total energy: -30026.25619109
::    SO-RASSI State   35     Total energy: -30026.25571919
::    SO-RASSI State   36     Total energy: -30026.25571919
::    SO-RASSI State   37     Total energy: -30026.25078707
::    SO-RASSI State   38     Total energy: -30026.25078707
::    SO-RASSI State   39     Total energy: -30026.24514368
::    SO-RASSI State   40     Total energy: -30026.24514368
::    SO-RASSI State   41     Total energy: -30026.23069894
::    SO-RASSI State   42     Total energy: -30026.23069894
::    SO-RASSI State   43     Total energy: -30026.22833983
::    SO-RASSI State   44     Total energy: -30026.22833983
::    SO-RASSI State   45     Total energy: -30026.22564478
::    SO-RASSI State   46     Total energy: -30026.22564478
::    SO-RASSI State   47     Total energy: -30026.22326798
::    SO-RASSI State   48     Total energy: -30026.22326798
 
 
   Eigenvalues of complex Hamiltonian:
   -----------------------------------
 
  (Shifted by EVAC (a.u.) =    -30026.314858172)
 
          Relative EVac(au)    Rel lowest level(eV)    D:o, cm**(-1)
 
     1       -0.0260612613          0.0000000000              0.0000
     2       -0.0260612613          0.0000000000              0.0000
     3       -0.0249695831          0.0297060754            239.5957
     4       -0.0249695831          0.0297060754            239.5957
     5       -0.0075047046          0.5049496267           4072.6934
     6       -0.0075047046          0.5049496267           4072.6934
     7       -0.0040197550          0.5997799367           4837.5515
     8       -0.0040197550          0.5997799367           4837.5515
     9       -0.0004407105          0.6971706964           5623.0609
    10       -0.0004407105          0.6971706964           5623.0609
    11        0.0042820696          0.8256840908           6659.5914
    12        0.0042820696          0.8256840908           6659.5914
    13        0.0077468911          0.9199666859           7420.0318
    14        0.0077468911          0.9199666859           7420.0318
    15        0.0212479848          1.2873501577          10383.1793
    16        0.0212479848          1.2873501577          10383.1793
    17        0.0226736351          1.3261440771          10696.0734
    18        0.0226736351          1.3261440771          10696.0734
    19        0.0270816639          1.4460926505          11663.5239
    20        0.0270816639          1.4460926505          11663.5239
    21        0.0299520774          1.5242005819          12293.5069
    22        0.0299520774          1.5242005819          12293.5069
    23        0.0371143235          1.7190952234          13865.4382
    24        0.0371143235          1.7190952234          13865.4382
    25        0.0403166538          1.8062350704          14568.2684
    26        0.0403166538          1.8062350704          14568.2684
    27        0.0445031378          1.9201551023          15487.0955
    28        0.0445031378          1.9201551023          15487.0955
    29        0.0461779388          1.9657287588          15854.6718
    30        0.0461779388          1.9657287588          15854.6718
    31        0.0555116366          2.2197116117          17903.1817
    32        0.0555116366          2.2197116117          17903.1817
    33        0.0586670781          2.3055755484          18595.7210
    34        0.0586670781          2.3055755484          18595.7210
    35        0.0591389840          2.3184167641          18699.2924
    36        0.0591389840          2.3184167641          18699.2924
    37        0.0640710992          2.4526264528          19781.7666
    38        0.0640710992          2.4526264528          19781.7666
    39        0.0697144933          2.6061910282          21020.3484
    40        0.0697144933          2.6061910282          21020.3484
    41        0.0841592366          2.9992525160          24190.6031
    42        0.0841592366          2.9992525160          24190.6031
    43        0.0865183380          3.0634469337          24708.3660
    44        0.0865183380          3.0634469337          24708.3660
    45        0.0892133914          3.1367830722          25299.8619
    46        0.0892133914          3.1367830722          25299.8619
    47        0.0915901928          3.2014591337          25821.5095
    48        0.0915901928          3.2014591337          25821.5095
 
 
 Weights of the five most important spin-orbit-free states for each spin-orbit s
 tate.
 
 SO State  Total energy (au)           Spin-free states, spin, and weights
 -------------------------------------------------------------------------------
 ------------------------
    1        -0.026061       7 0.5  0.3489    8 0.5  0.3116    1 1.5  0.1590    2 1.5  0.1450   15 0.5  0.0115
    2        -0.026061       7 0.5  0.3489    8 0.5  0.3116    1 1.5  0.1590    2 1.5  0.1450   15 0.5  0.0115
    3        -0.024970       1 1.5  0.4877    2 1.5  0.4714   16 0.5  0.0120   15 0.5  0.0104    5 1.5  0.0085
    4        -0.024970       1 1.5  0.4877    2 1.5  0.4714   16 0.5  0.0120   15 0.5  0.0104    5 1.5  0.0085
    5        -0.007505       3 1.5  0.6038   11 0.5  0.1221    9 0.5  0.0698    2 1.5  0.0590    4 1.5  0.0485
    6        -0.007505       3 1.5  0.6038   11 0.5  0.1221    9 0.5  0.0698    2 1.5  0.0590    4 1.5  0.0485
    7        -0.004020       1 1.5  0.3052    3 1.5  0.2573    8 0.5  0.1832   13 0.5  0.0716    4 1.5  0.0519
    8        -0.004020       1 1.5  0.3052    3 1.5  0.2573    8 0.5  0.1832   13 0.5  0.0716    4 1.5  0.0519
    9        -0.000441       2 1.5  0.4104    7 0.5  0.1833    9 0.5  0.1093    3 1.5  0.0787    1 1.5  0.0711
   10        -0.000441       2 1.5  0.4104    7 0.5  0.1833    9 0.5  0.1093    3 1.5  0.0787    1 1.5  0.0711
   11         0.004282       3 1.5  0.3785    1 1.5  0.1847    2 1.5  0.1446    7 0.5  0.1157    5 1.5  0.0435
   12         0.004282       3 1.5  0.3785    1 1.5  0.1847    2 1.5  0.1446    7 0.5  0.1157    5 1.5  0.0435
   13         0.007747       9 0.5  0.3642    3 1.5  0.1032    8 0.5  0.0915    1 1.5  0.0913    4 1.5  0.0649
   14         0.007747       9 0.5  0.3642    3 1.5  0.1032    8 0.5  0.0915    1 1.5  0.0913    4 1.5  0.0649
   15         0.021248       2 1.5  0.3523    1 1.5  0.3398    4 1.5  0.0651    5 1.5  0.0621    8 0.5  0.0445
   16         0.021248       2 1.5  0.3523    1 1.5  0.3398    4 1.5  0.0651    5 1.5  0.0621    8 0.5  0.0445
   17         0.022674       8 0.5  0.1930    7 0.5  0.1772    1 1.5  0.1741    2 1.5  0.1586    3 1.5  0.1084
   18         0.022674       8 0.5  0.1930    7 0.5  0.1772    1 1.5  0.1741    2 1.5  0.1586    3 1.5  0.1084
   19         0.027082      13 0.5  0.2641    4 1.5  0.2474    3 1.5  0.2236    9 0.5  0.0685   10 0.5  0.0598
   20         0.027082      13 0.5  0.2641    4 1.5  0.2474    3 1.5  0.2236    9 0.5  0.0685   10 0.5  0.0598
   21         0.029952      14 0.5  0.2185    9 0.5  0.1923    5 1.5  0.1540   12 0.5  0.1088    3 1.5  0.0739
   22         0.029952      14 0.5  0.2185    9 0.5  0.1923    5 1.5  0.1540   12 0.5  0.1088    3 1.5  0.0739
   23         0.037114      10 0.5  0.2622   11 0.5  0.1726    5 1.5  0.1503    4 1.5  0.1398   12 0.5  0.1289
   24         0.037114      10 0.5  0.2622   11 0.5  0.1726    5 1.5  0.1503    4 1.5  0.1398   12 0.5  0.1289
   25         0.040317       4 1.5  0.5680    5 1.5  0.1409    2 1.5  0.0942   11 0.5  0.0689    1 1.5  0.0586
   26         0.040317       4 1.5  0.5680    5 1.5  0.1409    2 1.5  0.0942   11 0.5  0.0689    1 1.5  0.0586
   27         0.044503       5 1.5  0.6751    4 1.5  0.2592    1 1.5  0.0287   15 0.5  0.0150   10 0.5  0.0060
   28         0.044503       5 1.5  0.6751    4 1.5  0.2592    1 1.5  0.0287   15 0.5  0.0150   10 0.5  0.0060
   29         0.046178      12 0.5  0.4267   10 0.5  0.2186    5 1.5  0.2010    4 1.5  0.1224    2 1.5  0.0065
   30         0.046178      12 0.5  0.4267   10 0.5  0.2186    5 1.5  0.2010    4 1.5  0.1224    2 1.5  0.0065
   31         0.055512      11 0.5  0.3839    3 1.5  0.1280    6 1.5  0.1107    9 0.5  0.0892    4 1.5  0.0863
   32         0.055512      11 0.5  0.3839    3 1.5  0.1280    6 1.5  0.1107    9 0.5  0.0892    4 1.5  0.0863
   33         0.058667      15 0.5  0.7656   14 0.5  0.0787    5 1.5  0.0444   16 0.5  0.0309   11 0.5  0.0209
   34         0.058667      15 0.5  0.7656   14 0.5  0.0787    5 1.5  0.0444   16 0.5  0.0309   11 0.5  0.0209
   35         0.059139      16 0.5  0.9206   15 0.5  0.0246    4 1.5  0.0135    1 1.5  0.0124   10 0.5  0.0073
   36         0.059139      16 0.5  0.9206   15 0.5  0.0246    4 1.5  0.0135    1 1.5  0.0124   10 0.5  0.0073
   37         0.064071      13 0.5  0.2858    6 1.5  0.2538    4 1.5  0.1466   14 0.5  0.0982   10 0.5  0.0821
   38         0.064071      13 0.5  0.2858    6 1.5  0.2538    4 1.5  0.1466   14 0.5  0.0982   10 0.5  0.0821
   39         0.069714      14 0.5  0.2528   13 0.5  0.1473   12 0.5  0.1418    5 1.5  0.1239    6 1.5  0.0873
   40         0.069714      14 0.5  0.2528   13 0.5  0.1473   12 0.5  0.1418    5 1.5  0.1239    6 1.5  0.0873
   41         0.084159      17 0.5  0.9726    6 1.5  0.0082    1 1.5  0.0051    2 1.5  0.0028    8 0.5  0.0028
   42         0.084159      17 0.5  0.9726    6 1.5  0.0082    1 1.5  0.0051    2 1.5  0.0028    8 0.5  0.0028
   43         0.086518      18 0.5  0.9014    6 1.5  0.0664   14 0.5  0.0072    2 1.5  0.0055    1 1.5  0.0039
   44         0.086518      18 0.5  0.9014    6 1.5  0.0664   14 0.5  0.0072    2 1.5  0.0055    1 1.5  0.0039
   45         0.089213       6 1.5  0.7920   13 0.5  0.0684   11 0.5  0.0435    4 1.5  0.0389   18 0.5  0.0129
   46         0.089213       6 1.5  0.7920   13 0.5  0.0684   11 0.5  0.0435    4 1.5  0.0389   18 0.5  0.0129
   47         0.091590       6 1.5  0.6621   14 0.5  0.1261   18 0.5  0.0633    5 1.5  0.0460   13 0.5  0.0452
   48         0.091590       6 1.5  0.6621   14 0.5  0.1261   18 0.5  0.0633    5 1.5  0.0460   13 0.5  0.0452
 -------------------------------------------------------------------------------
 ------------------------
 
 
      ****************************************************************************************************
      *                                                                                                  *
      *                                    Special properties section                                    *
      *                                                                                                  *
      ****************************************************************************************************
 
 
++ Velocity transition strengths (SO states):
   ------------------------------------------
    for osc. strength at least   1.000000000000000E-005
 
         To  From     Osc. strength   Einstein coefficients Ax, Ay, Az (sec-1)  
      Total A (sec-1)  
         -----------------------------------------------------------------------
 --------------------
        15   17       1.22490002E-05  6.47892940E-01  1.46247148E-01  5.76048587E-03  7.99900574E-01
        16   18       1.22490002E-05  6.47892940E-01  1.46247148E-01  5.76048588E-03  7.99900574E-01
        19   22       2.26849002E-05  4.76525242E+00  1.19268063E+00  4.73736649E-02  6.00530671E+00
        20   21       2.26849002E-05  4.76525242E+00  1.19268063E+00  4.73736649E-02  6.00530671E+00
        41   43       9.76205844E-05  1.40944352E+01  3.35992470E+00  1.60978734E-03  1.74559697E+01
        42   44       9.76205844E-05  1.40944352E+01  3.35992470E+00  1.60978734E-03  1.74559697E+01
         -----------------------------------------------------------------------
 --------------------
--
 
 
 --------------------------------------------------
 
 A comparison between the dipole oscillator strengths in 
 length and velocity gauge will be performed
 
 All dipole oscillator differences above the tolerance of 
  0.100000000000000       will be printed 
 
 Due to basis set deficiency these oscillator may be problematic 
 
 The tolerance is defined as ABS(1-O_l/O_v) 
 O_l : dipole oscillator strength in length gauge
 O_p : dipole oscillator strength in velocity gauge
 
 --------------------------------------------------
 
  Problematic transitions have been found
      From   To      Difference (%)  Osc. st. (len.) Osc. st. (vel.)
      --------------------------------------------------------------
 
        15   17      --------------- below threshold  1.22490002E-05
        16   18      --------------- below threshold  1.22490002E-05
        19   22      --------------- below threshold  2.26849002E-05
        20   21      --------------- below threshold  2.26849002E-05
        41   43      --------------- below threshold  9.76205844E-05
        42   44      --------------- below threshold  9.76205844E-05
      --------------------------------------------------------------
 
 Number of problematic transitions =                      6
 
 ###############################################################################
 ###############################################################################
 ###                                                                         ###
 ###                                                                         ###
 ###    RunFile label nBas                                                   ###
 ###    was used     6196 times                                              ###
 ###                                                                         ###
 ###                                                                         ###
 ###############################################################################
 ###############################################################################
--- Stop Module: rassi at Sun Nov 18 03:24:59 2018 /rc=_RC_ALL_IS_WELL_ ---
*** files: NpO2_CH3SO2_SO2-m1-doublet.rassi-SO-casscf-xmscaspt2.VTZP.rassi.h5 xmldump
    saved to directory /home/vallet/John-methylsulfonyl/NpO2_CH3SO2_SO2-m1/doublet-geom/optg-freq-pbe0/SO-XMS
--- Module rassi spent 26 seconds ---

    Timing: Wall=23185.30 User=92852.77 System=9801.55
