13
Energy = -1841.177808535
C     0.9547028    2.2667807    1.0927780 
S     1.7131536    0.6179059    1.0249424 
O     0.6185130   -0.2489437    1.6566289 
Pu   -0.3540159   -1.1233610   -0.4826847 
O    -1.3726575   -1.9804779   -2.6473714 
S    -2.5231539   -2.7594500   -2.0096300 
O    -2.4493497   -2.5599716   -0.4956949 
O     1.6899360    0.3312282   -0.4803065 
O     0.6179830   -2.5707852   -0.3877877 
O    -1.3337800    0.3259988   -0.5809932 
H     1.6144006    2.9684074    0.5812353 
H    -0.0090163    2.1880530    0.5886202 
H     0.8332843    2.5446155    2.1402635 
