   This run of MOLCAS is using the pymolcas driver

                             OPE
                             OPE          NMOL  CASOP  ENMOLC A   SO
                 OPE        NMOLC        AS  OP EN  MO LC     AS  OP
                OPENM       OL CA        SO  PE NM  OL CA     SOP EN
                OP EN      MO   LC       AS  OP ENMOL  CASO   PENMOL
                OP  EN     MO   LC       AS  OP EN     MO     LC ASO
               OP   E  NMOL  C  AS       OP  EN MO     LC     AS  OP
               OP  E   NMO   LC AS        OPEN  MO     LCASOP EN   M
               O  PEN   MO  LCA  SO
            OPE   NMO   L   CAS    OP
        OPENMOL  CASOP     ENMOL   CASOPE
     OPENMOLCA   SOPENMOLCASOPEN   MOLCASOPE
    OPENMOLCAS   OP           EN   MOL    CAS
    OPENMOLCAS       OP  ENM        O     LCA
    OPENMOLCAS    OPEN  MOLCASO     P  E  NMO
    OPENMOLCAS     OP               E  N  MOL
    OPENMOLCA   SO           PENM   O  L  CAS    OPEN    MO    LCAS
    OPENMOLCA   SOP           ENM   O  L  CAS   OP  EN  MOLC  AS   O
    OPENMOLCA   SOPE           NM      O  LCA   S      OP  EN MO
    OPENMOLC                AS         O  PEN   M      OL  CA  SOPE
    OPENMO        LCASOPE  NMOL        C  ASO   P      ENMOLC     AS
    OPE     NMO      LCA  SO     P     E   NM   OL  CA SO  PE N   MO
          OPENMOLCA            SOPE   NMO        LCAS  O    P  ENMO
     OPENMOLCASOPENMOLCASOPENMOLCASOPENMOLCA
        OPENMOLCASOPENMOLCASOPENMOLCASOPE
            OPENMOLCASOPENMOLCASOPENM
               OPENMOLCASOPENMOLCA        version: 18.09
                   OPENMOLCASO
                       OPE                tag: 50-g6d6e5e5-dirty

 OpenMolcas is free software; you can redistribute it and/or modify it
 under the terms of the GNU Lesser General Public License version 2.1.
 OpenMolcas is distributed in the hope that it will be useful, but it
 is provided "as is" and without any express or implied warranties.
 For more details see the full text of the license in the file
 LICENSE or in <http://www.gnu.org/licenses/>.

                 Copyright (C) The OpenMolcas Authors
           For the author list and the recommended citation,
                   consult the file CONTRIBUTORS.md

           *************************************************
           * pymolcas version py2.04                       *
           *   build 3b3f1139d1f9af0cd96dc01c0ce9d5c0      *
           *   (after the EMIL interpreter by V. Veryazov) *
           *************************************************

configuration info
------------------
C Compiler ID: Intel
C flags: -std=gnu99 -qopenmp
Fortran Compiler ID: Intel
Fortran flags: -fpp -i8 -r8 -heap-arrays -qopenmp
Definitions: _MOLCAS_;_I8_;_LINUX_;_MKL_;_FDE_
Parallel: OFF (GA=OFF)


   ----------------------------------------------------------------------------------------------------------------
  |
  |           Project: NpO2_CH3SO2_O2-m1-doublet.casscf.MB
  |    Submitted from: /home/vallet/John-methylsulfonyl/NpO2_CH3SO2_O2-m1/doublet-geom/optg-freq-pbe0-peroxo/SO-XMS
  |      Scratch area: /state/partition1/vallet/499053.phlam-s-sakura/NpO2_CH3SO2_O2-m1-doublet.casscf.MB
  |   Save outputs to: /home/vallet/John-methylsulfonyl/NpO2_CH3SO2_O2-m1/doublet-geom/optg-freq-pbe0-peroxo/SO-XMS
  |            Molcas: /home/pcmt/OpenMolcas/OpenMolcas-20181005
  |
  | Scratch area is empty
  |
  |    MOLCAS_DRIVER = /home/pcmt/OpenMolcas/OpenMolcas-20181005/sbin/pymolcas
  |   MOLCAS_LICENSE = /home/pcmt/molcas/license
  |    MOLCAS_MOLDEN = ON
  |    MOLCAS_NPROCS = 1
  |    MOLCAS_SOURCE = /home/pcmt/OpenMolcas/OpenMolcas-20181005
  | MOLCAS_STRUCTURE = 0
  |
   ----------------------------------------------------------------------------------------------------------------

++ ---------   Input file   ---------

&GATEWAY
   COORD=$HomeDir/NpO2_CH3SO2_O2-m1-doublet.pbe0.optg-zaxis.xyz
   BASIS=ANO-RCC-MB
   Group=Nosym
   ANGM=0.0 0.0 0.0
   RICD

>>> COPY $Project.RunFile $HomeDir

&SEWARD

&RASSCF
   Spin=4
   Symmetry=1
   Nactel=5 0 0
   Inactive=81
   Ras2=6
   CIRoots=1 1 1
   Lumorb

>>> COPY $Project.RasOrb INPORB

&RASSCF
   Spin=4
   Symmetry=1
   Nactel=5 0 0
   Inactive=81
   Ras2=6
   CIRoots=12 12 1
   ALTER=1
 1 80 83

   Lumorb

>>> COPY $Project.RasOrb $HomeDir/$Project.RasOrb_quartets

>>> COPY $Project.rasscf.molden $HomeDir/$Project.rasscf_quartets.molden

>>> COPY $Project.RasOrb INPORB

&RASSCF
   Spin=2
   Symmetry=1
   Nactel=5 0 0
   Inactive=81
   Ras2=6
   CIRoots=24 24 1
   Lumorb

>>> COPY $Project.RasOrb $HomeDir/$Project.RasOrb_doublets

>>> COPY $Project.rasscf.molden $HomeDir/$Project.rasscf_doublets.molden

-- ----------------------------------

--- Start Module: gateway at Fri Nov 16 15:48:15 2018 ---
 
()()()()()()()()()()()()()()()()()()()()()()()()()()()()()()()()()()()()()()()()()()()()()()()()()()

                                              &GATEWAY

                                   only a single process is used
                       available to each process: 16 GB of memory, 8 threads
()()()()()()()()()()()()()()()()()()()()()()()()()()()()()()()()()()()()()()()()()()()()()()()()()()
 
 
++    Symmetry information:
      ---------------------
 
                    Character Table for C1 
 
                             E  
                    a        1  x, y, xy, Rz, z, xz, Ry, yz, Rx, I
--
 
 
++    Basis set information:
      ----------------------
 
 
      Basis set label: C.ANO-RCC...2S1P.
 
      Electronic valence basis set:
      ------------------
      Associated Effective Charge   6.000000 au
      Associated Actual Charge      6.000000 au
      Nuclear Model: Point charge
 
      Shell  nPrim  nBasis  Cartesian Spherical Contaminant
         s      14       2        X                  
         p       9       1        X                  
 
 
      Basis set label: S.ANO-RCC...3S2P.
 
      Electronic valence basis set:
      ------------------
      Associated Effective Charge  16.000000 au
      Associated Actual Charge     16.000000 au
      Nuclear Model: Point charge
 
      Shell  nPrim  nBasis  Cartesian Spherical Contaminant
         s      17       3        X                  
         p      12       2        X                  
 
 
      Basis set label: O.ANO-RCC...2S1P.
 
      Electronic valence basis set:
      ------------------
      Associated Effective Charge   8.000000 au
      Associated Actual Charge      8.000000 au
      Nuclear Model: Point charge
 
      Shell  nPrim  nBasis  Cartesian Spherical Contaminant
         s      14       2        X                  
         p       9       1        X                  
 
 
      Basis set label: NP.ANO-RCC...7S6P4D2F.
 
      Electronic valence basis set:
      ------------------
      Associated Effective Charge  93.000000 au
      Associated Actual Charge     93.000000 au
      Nuclear Model: Point charge
 
      Shell  nPrim  nBasis  Cartesian Spherical Contaminant
         s      26       7        X                  
         p      23       6        X                  
         d      17       4                 X         
         f      13       2                 X         
 
 
      Basis set label: O.ANO-RCC...2S1P.
 
      Electronic valence basis set:
      ------------------
      Associated Effective Charge   8.000000 au
      Associated Actual Charge      8.000000 au
      Nuclear Model: Point charge
 
      Shell  nPrim  nBasis  Cartesian Spherical Contaminant
         s      14       2        X                  
         p       9       1        X                  
 
 
      Basis set label: H.ANO-RCC...1S.
 
      Electronic valence basis set:
      ------------------
      Associated Effective Charge   1.000000 au
      Associated Actual Charge      1.000000 au
      Nuclear Model: Point charge
 
      Shell  nPrim  nBasis  Cartesian Spherical Contaminant
         s       8       1        X                  
 
 
      Basis set label: O.ANO-RCC...2S1P.
 
      Electronic valence basis set:
      ------------------
      Associated Effective Charge   8.000000 au
      Associated Actual Charge      8.000000 au
      Nuclear Model: Point charge
 
      Shell  nPrim  nBasis  Cartesian Spherical Contaminant
         s      14       2        X                  
         p       9       1        X                  
--
 
 
++    Molecular structure info:
      -------------------------
 
                    ************************************************ 
                    **** Cartesian Coordinates / Bohr, Angstrom **** 
                    ************************************************ 
 
     Center  Label                x              y              z                     x              y              z
        1      C1              -5.319485       4.003120      -3.466892             -2.814950       2.118360      -1.834600
        2      S2              -4.696423       3.531388      -0.128690             -2.485240       1.868730      -0.068100
        3      O3              -4.727792       0.637253       0.064270             -2.501840       0.337220       0.034010
        4      NP4              0.000000       0.000000       0.000000              0.000000       0.000000       0.000000
        5      O5               3.859388      -1.196159      -0.160343              2.042300      -0.632980      -0.084850
        6      O6              -1.921455       4.356329       0.065611             -1.016790       2.305270       0.034720
        7      O7               0.000000       0.000000       3.316356              0.000000       0.000000       1.754940
        8      O8              -0.210893       0.149326      -3.318529             -0.111600       0.079020      -1.756090
        9      H9              -5.166927       6.017663      -3.872370             -2.734220       3.184410      -2.049170
       10      H10             -3.897919       2.919532      -4.492257             -2.062690       1.544950      -2.377200
       11      H11             -7.221513       3.320022      -3.869365             -3.821460       1.756880      -2.047580
       12      O12              2.296849      -3.326220      -0.159020              1.215440      -1.760160      -0.084150
 
                    *************************************** 
                    *    InterNuclear Distances / Bohr    * 
                    *************************************** 
 
               1 C1            2 S2            3 O3            4 NP4           5 O5            6 O6    
    1 C1       0.000000
    2 S2       3.428458        0.000000
    3 O3       4.914088        2.900730        0.000000
    4 NP4      7.506079        5.877385        4.770979        0.000000
    5 O5      11.055201        9.775101        8.783593        4.043684        0.000000
    6 O6       4.914259        2.901505        4.659083        4.761711        8.018685        0.000000
    7 O7       9.504438        6.811419        5.773576        3.316356        5.330395        5.765148
    8 O8       6.400894        6.460138        5.664254        3.328575        5.324627        5.663682
    9 H9       2.060599        4.518636        6.681226        8.826361       12.136421        5.366639
   10 H10      2.060676        4.478023        5.163276        6.625543        9.791844        5.171553
   11 H11      2.060660        4.518120        5.374884        8.839954       12.527533        6.681960
   12 O12     11.075639        9.794568        8.068740        4.045311        2.641721        8.767332
 
               7 O7            8 O8            9 H9           10 H10          11 H11          12 O12   
    7 O7       0.000000
    8 O8       6.639915        0.000000
    9 H9      10.704540        7.701064        0.000000
   10 H10      9.202819        4.758764        3.404857        0.000000
   11 H11     10.714821        7.713982        3.390958        3.405093        0.000000
   12 O12      5.330806        5.324537       12.522183        9.806198       12.187633        0.000000
 
                    ******************************************* 
                    *    InterNuclear Distances / Angstrom    * 
                    ******************************************* 
 
               1 C1            2 S2            3 O3            4 NP4           5 O5            6 O6    
    1 C1       0.000000
    2 S2       1.814262        0.000000
    3 O3       2.600423        1.535000        0.000000
    4 NP4      3.972046        3.110178        2.524694        0.000000
    5 O5       5.850160        5.172761        4.648077        2.139825        0.000000
    6 O6       2.600514        1.535410        2.465481        2.519789        4.243306        0.000000
    7 O7       5.029532        3.604448        3.055245        1.754940        2.820723        3.050785
    8 O8       3.387207        3.418558        2.997394        1.761406        2.817671        2.997092
    9 H9       1.090422        2.391159        3.535552        4.670709        6.422318        2.839903
   10 H10      1.090463        2.369668        2.732288        3.506086        5.181620        2.736668
   11 H11      1.090454        2.390886        2.844266        4.677902        6.629285        3.535941
   12 O12      5.860976        5.183062        4.269793        2.140687        1.397939        4.639472
 
               7 O7            8 O8            9 H9           10 H10          11 H11          12 O12   
    7 O7       0.000000
    8 O8       3.513692        0.000000
    9 H9       5.664599        4.075227        0.000000
   10 H10      4.869922        2.518230        1.801773        0.000000
   11 H11      5.670039        4.082063        1.794418        1.801898        0.000000
   12 O12      2.820941        2.817623        6.626454        5.189216        6.449418        0.000000
 
                    ************************************** 
                    *    Valence Bond Angles / Degree    * 
                    ************************************** 
                          Atom centers                 Phi
                      9 H9       1 C1      10 H10      111.41
                      9 H9       1 C1      11 H11      110.73
                     10 H10      1 C1      11 H11      111.42
                      3 O3       2 S2       6 O6       106.83
--
 
 
            Nuclear Potential Energy           1922.36411154 au
 
--- Stop Module: gateway at Fri Nov 16 15:49:14 2018 /rc=_RC_ALL_IS_WELL_ ---
*** files: NpO2_CH3SO2_O2-m1-doublet.casscf.MB.RICDLib xmldump
    saved to directory /home/vallet/John-methylsulfonyl/NpO2_CH3SO2_O2-m1/doublet-geom/optg-freq-pbe0-peroxo/SO-XMS
--- Module gateway spent 58 seconds ---

>>> COPY NpO2_CH3SO2_O2-m1-doublet.casscf.MB.RunFile /home/vallet/John-methylsulfonyl/NpO2_CH3SO2_O2-m1/doublet-geom/optg-freq-pbe0-peroxo/SO-XMS

--- Start Module: seward at Fri Nov 16 15:49:14 2018 ---
 
()()()()()()()()()()()()()()()()()()()()()()()()()()()()()()()()()()()()()()()()()()()()()()()()()()

                                              &SEWARD

                                   only a single process is used
                       available to each process: 16 GB of memory, 8 threads
()()()()()()()()()()()()()()()()()()()()()()()()()()()()()()()()()()()()()()()()()()()()()()()()()()
 
               SEWARD will generate:
                  Multipole Moment integrals up to order  2
                  Kinetic Energy integrals
                  Nuclear Attraction integrals (point charge)
                  One-Electron Hamiltonian integrals
                  Velocity integrals
                  Relativistic Douglas-Kroll-Hess integrals:
                    - Parametrization         : EXP
                    - DKH order of Hamiltonian: 2
                    - DKH order of Properties : 0
                         - multipole moment operators
                         - electric potential operators
                         - contact operators
                  Orbital angular momentum around ( 0.0000  0.0000  0.0000 )
                  Atomic mean-field integrals
                  RI decomposed two-electron repulsion integrals stored Cholesky style
                   - acCD auxiliary basis
                   - CD Threshold:   0.10E-03
 
                   Integrals are discarded if absolute value <: 0.10E-13
                   Integral cutoff threshold is set to       <: 0.10E-15
 
            Nuclear Potential Energy           1922.36411154 au
 
 
      Basis set specifications :
      Symmetry species         a  
      Basis functions          106
 
 
  Input file to MOLDEN was generated!
 
--- Stop Module: seward at Fri Nov 16 15:49:28 2018 /rc=_RC_ALL_IS_WELL_ ---
*** files: NpO2_CH3SO2_O2-m1-doublet.casscf.MB.GssOrb NpO2_CH3SO2_O2-m1-doublet.casscf.MB.guessorb.h5 NpO2_CH3SO2_O2-m1-doublet.casscf.MB.guessorb.molden xmldump
    saved to directory /home/vallet/John-methylsulfonyl/NpO2_CH3SO2_O2-m1/doublet-geom/optg-freq-pbe0-peroxo/SO-XMS
--- Module seward spent 14 seconds ---

*** symbolic link created: INPORB -> NpO2_CH3SO2_O2-m1-doublet.casscf.MB.GssOrb
--- Start Module: rasscf at Fri Nov 16 15:49:28 2018 ---
 
()()()()()()()()()()()()()()()()()()()()()()()()()()()()()()()()()()()()()()()()()()()()()()()()()()

                                              &RASSCF

                                   only a single process is used
                       available to each process: 16 GB of memory, 8 threads
()()()()()()()()()()()()()()()()()()()()()()()()()()()()()()()()()()()()()()()()()()()()()()()()()()
 
 
      Header of the ONEINT file:
      --------------------------
      
      Integrals generated by seward 4.2.0  , Fri Nov 16 15:49:14 2018
 
 
      OrdInt status: non-squared
 
 
      Cartesian coordinates in Angstrom:
      -----------------------------------------------------
      No.  Label        X            Y            Z        
      -----------------------------------------------------
       1   C1        -2.81495000   2.11836000  -1.83460000
       2   S2        -2.48524000   1.86873000  -0.06810000
       3   O3        -2.50184000   0.33722000   0.03401000
       4   NP4        0.00000000   0.00000000   0.00000000
       5   O5         2.04230000  -0.63298000  -0.08485000
       6   O6        -1.01679000   2.30527000   0.03472000
       7   O7         0.00000000   0.00000000   1.75494000
       8   O8        -0.11160000   0.07902000  -1.75609000
       9   H9        -2.73422000   3.18441000  -2.04917000
      10   H10       -2.06269000   1.54495000  -2.37720000
      11   H11       -3.82146000   1.75688000  -2.04758000
      12   O12        1.21544000  -1.76016000  -0.08415000
      -----------------------------------------------------
      Nuclear repulsion energy = 1922.36411154
 
++    Wave function specifications:
      -----------------------------
 
      Number of closed shell electrons         162
      Number of electrons in active shells       5
      Max number of holes in RAS1 space          0
      Max nr of electrons in RAS3 space          0
      Number of inactive orbitals               81
      Number of active orbitals                  6
      Number of secondary orbitals              19
      Spin quantum number                      1.5
      State symmetry                             1
--
 
++    Orbital specifications:
      -----------------------
 
      Symmetry species                           1
                                                 a
      Frozen orbitals                            0
      Inactive orbitals                         81
      Active orbitals                            6
      RAS1 orbitals                              0
      RAS2 orbitals                              6
      RAS3 orbitals                              0
      Secondary orbitals                        19
      Deleted orbitals                           0
      Number of basis functions                106
--
 
++    CI expansion specifications:
      ----------------------------
 
      Number of CSFs                            84
      Number of determinants                    90
      Number of root(s) required                 1
      Root chosen for geometry opt.              1
      CI root used                               1
         
      highest root included in the CI            1
      max. size of the explicit Hamiltonian     84
--
 
++    Optimization specifications:
      ----------------------------
 
      RASSCF algorithm: LK RI/DF
      Maximum number of macro iterations       200
      Maximum number of SX iterations          100
      Threshold for RASSCF energy            0.100E-07
      Threshold for max MO rotation          0.100E+00
      Threshold for max BLB element          0.100E-03
      Level shift parameter                  0.500E+00
      Make Quasi-Newton update
--
 
      The MO-coefficients are taken from the file:
      INPORB                                                                                                                          
      Title:Guess orbitals                                                                 
 
      Total molecular charge   -1.00
 
      ************************************************************************************************************************
      *                                                                                                                      *
      *                                            Wave function control section                                             *
      *                                                                                                                      *
      ************************************************************************************************************************
 
 
                                         RASSCF iterations: Energy and convergence statistics
                                         ----------------------------------------------------
 
      Iter CI   SX   CI       RASSCF       Energy    max ROT     max BLB   max BLB  Level Ln srch  Step   QN   Walltime
          iter iter root      energy       change     param      element    value   shift minimum  type update hh:mm:ss
 Nr of preliminary CI iterations:   1
      Total energies have been shifted. Add               -29000.00 au
        1   1   16    1  -623.05416179    0.00E+00   0.11E+00*  72  93 1 -0.26E+00*  0.61   0.00    SX    NO    0:00:01
        2   1   12    1  -623.68522836   -0.63E+00*  0.98E-01   87  89 1  0.18E+00*  0.50   0.00    SX    NO    0:00:00
        3   1   12    1  -623.86618129   -0.18E+00*  0.45E-01   87  89 1  0.80E-01*  0.50   0.00    SX    NO    0:00:00
        4   1   12    1  -623.91446294   -0.48E-01*  0.23E-01   79  97 1 -0.45E-01*  0.49   0.00    SX    NO    0:00:00
        5   1   12    1  -623.93002183   -0.16E-01*  0.27E-01   79  97 1 -0.29E-01*  0.48   2.42    LS   YES    0:00:00
        6   1   11    1  -623.93798262   -0.80E-02* -0.25E-01   77  93 1 -0.11E-01*  0.48   1.22    QN   YES    0:00:00
        7   1   10    1  -623.93969953   -0.17E-02* -0.25E-01   82  91 1  0.75E-02*  0.48   2.09    LS   YES    0:00:00
        8   1   10    1  -623.94034928   -0.65E-03* -0.20E-01   69  96 1  0.77E-02*  0.48   1.12    QN   YES    0:00:00
        9   1   10    1  -623.94102707   -0.68E-03* -0.16E-01   82  91 1  0.41E-02*  0.48   1.86    LS   YES    0:00:00
       10   1   10    1  -623.94120943   -0.18E-03* -0.15E-01   71  89 1  0.46E-02*  0.48   1.06    QN   YES    0:00:00
       11   1   10    1  -623.94143958   -0.23E-03* -0.24E-01   87  89 1  0.40E-02*  0.48   1.77    QN   YES    0:00:00
       12   1    9    1  -623.94164095   -0.20E-03* -0.24E-01   87  89 1  0.38E-02*  0.48   1.64    QN   YES    0:00:00
       13   1   10    1  -623.94174954   -0.11E-03* -0.27E-01   87  89 1  0.27E-02*  0.48   1.74    QN   YES    0:00:00
       14   1   10    1  -623.94183297   -0.83E-04* -0.35E-01   82  91 1 -0.18E-02*  0.48   2.01    QN   YES    0:00:00
       15   1   21    1  -623.94192282   -0.90E-04*  0.41E-01   87  92 1  0.16E-02*  0.48   1.95    QN   YES    0:00:00
       16   1    9    1  -623.94201070   -0.88E-04*  0.41E-01   87  92 1  0.16E-02*  0.48   1.92    QN   YES    0:00:00
       17   1   19    1  -623.94209070   -0.80E-04*  0.37E-01   66  93 1 -0.14E-02*  0.48   1.89    QN   YES    0:00:00
       18   1   20    1  -623.94216235   -0.72E-04*  0.34E-01   82  91 1  0.12E-02*  0.48   1.93    QN   YES    0:00:00
       19   1   27    1  -623.94223189   -0.70E-04*  0.44E-01   82  91 1  0.13E-02*  0.48   1.99    QN   YES    0:00:00
       20   1   32    1  -623.94230614   -0.74E-04*  0.53E-01   87  92 1 -0.14E-02*  0.48   1.98    QN   YES    0:00:01
       21   1   44    1  -623.94238247   -0.76E-04* -0.49E-01   73  88 1  0.17E-02*  0.48   1.86    QN   YES    0:00:01
       22   1   44    1  -623.94244930   -0.67E-04* -0.32E-01   73  88 1  0.15E-02*  0.48   1.75    QN   YES    0:00:00
       23   1   29    1  -623.94249719   -0.48E-04* -0.14E-01   80  96 1 -0.93E-03*  0.48   1.68    QN   YES    0:00:00
       24   1   42    1  -623.94252848   -0.31E-04* -0.14E-01   60  84 1  0.71E-03*  0.48   1.76    QN   YES    0:00:00
       25   1   19    1  -623.94255534   -0.27E-04* -0.23E-01   73  88 1 -0.76E-03*  0.48   2.09    QN   YES    0:00:00
       26   1   43    1  -623.94259293   -0.38E-04* -0.46E-01   73  88 1 -0.12E-02*  0.48   2.36    QN   YES    0:00:01
       27   1   43    1  -623.94265933   -0.66E-04* -0.90E-01   80  96 1  0.18E-02*  0.48   2.50    QN   YES    0:00:01
       28   1   46    1  -623.94278648   -0.13E-03* -0.15E+00*  80  96 1  0.27E-02*  0.48   2.50    QN   YES    0:00:01
       29   1   50    1  -623.94300411   -0.22E-03* -0.18E+00*  75  93 1 -0.41E-02*  0.48   1.90    QN   YES    0:00:00
       30   1   52    1  -623.94324622   -0.24E-03* -0.12E+00*  87  92 1  0.57E-02*  0.48   1.41    QN   YES    0:00:00
       31   1   51    1  -623.94352837   -0.28E-03* -0.12E+00*  42  89 1  0.67E-02*  0.48   2.06    QN   YES    0:00:00
       32   1   47    1  -623.94405437   -0.53E-03* -0.10E+00*  75  93 1 -0.56E-02*  0.48   1.83    QN   YES    0:00:01
       33   1   44    1  -623.94460117   -0.55E-03*  0.30E-01   74  91 1 -0.36E-02*  0.48   1.53    QN   YES    0:00:01
       34   1   43    1  -623.94490346   -0.30E-03* -0.22E-01   42  89 1 -0.37E-02*  0.48   1.50    QN   YES    0:00:01
       35   1   41    1  -623.94504859   -0.15E-03* -0.19E-01   42  89 1 -0.21E-02*  0.48   1.65    QN   YES    0:00:00
       36   1   38    1  -623.94514255   -0.94E-04*  0.27E-01   75  93 1  0.14E-02*  0.48   1.60    QN   YES    0:00:00
       37   1   39    1  -623.94521252   -0.70E-04* -0.16E-01   42  89 1  0.16E-02*  0.48   1.55    QN   YES    0:00:00
       38   1   39    1  -623.94527240   -0.60E-04* -0.21E-01   42  89 1  0.15E-02*  0.48   1.73    QN   YES    0:00:00
       39   1   37    1  -623.94532979   -0.57E-04*  0.19E-01   71  89 1  0.15E-02*  0.48   1.83    QN   YES    0:00:01
       40   1   37    1  -623.94538336   -0.54E-04* -0.22E-01   80  96 1  0.10E-02*  0.48   1.78    QN   YES    0:00:01
       41   1   36    1  -623.94542702   -0.44E-04* -0.20E-01   75  93 1 -0.95E-03*  0.48   1.77    QN   YES    0:00:00
       42   1   36    1  -623.94546223   -0.35E-04*  0.20E-01   75  93 1 -0.89E-03*  0.48   1.79    QN   YES    0:00:00
       43   1   32    1  -623.94549118   -0.29E-04*  0.19E-01   71  89 1 -0.93E-03*  0.48   1.80    QN   YES    0:00:00
       44   1   35    1  -623.94551603   -0.25E-04* -0.17E-01   79  86 1 -0.82E-03*  0.48   1.74    QN   YES    0:00:00
       45   1   31    1  -623.94553545   -0.19E-04* -0.12E-01   79  86 1 -0.69E-03*  0.48   1.68    QN   YES    0:00:01
       46   1   31    1  -623.94554912   -0.14E-04* -0.84E-02   85  88 1 -0.50E-03*  0.48   1.65    QN   YES    0:00:01
       47   1   29    1  -623.94555830   -0.92E-05*  0.56E-02   72  93 1 -0.42E-03*  0.48   1.65    QN   YES    0:00:00
       48   1   31    1  -623.94556487   -0.66E-05*  0.53E-02   76  92 1 -0.36E-03*  0.48   1.76    QN   YES    0:00:00
       49   1   30    1  -623.94556991   -0.50E-05* -0.38E-02   79  86 1  0.35E-03*  0.48   1.70    QN   YES    0:00:00
       50   1   29    1  -623.94557359   -0.37E-05* -0.29E-02   79  86 1  0.30E-03*  0.48   1.65    QN   YES    0:00:00
       51   1   25    1  -623.94557607   -0.25E-05*  0.29E-02   42  84 1  0.21E-03*  0.48   1.61    QN   YES    0:00:00
       52   1   25    1  -623.94557761   -0.15E-05* -0.18E-02   42  84 1  0.18E-03*  0.48   1.57    QN   YES    0:00:00
       53   1   24    1  -623.94557852   -0.91E-06* -0.17E-02   66  93 1 -0.12E-03*  0.48   1.55    QN   YES    0:00:01
       54   1   23    1  -623.94557898   -0.45E-06* -0.25E-02   66  93 1 -0.95E-04   0.48   2.50    LS   YES    0:00:00
       55   1   24    1  -623.94557885    0.13E-06* -0.11E-02   76  89 1  0.13E-03*  0.48   0.38    LS   YES    0:00:00
       56   1   23    1  -623.94557905   -0.20E-06*  0.79E-03   76  89 1  0.91E-04   0.48   1.25    QN   YES    0:00:00
       57   1   23    1  -623.94557922   -0.17E-06*  0.12E-02   76  89 1  0.60E-04   0.48   2.50    LS   YES    0:00:00
       58   1   22    1  -623.94557928   -0.60E-07*  0.16E-02   63  89 1  0.38E-04   0.48   0.72    QN   YES    0:00:00
       59   1   22    1  -623.94557938   -0.10E-06*  0.24E-02   63  89 1  0.30E-04   0.48   2.50    LS   YES    0:00:01
       60   1   22    1  -623.94557937    0.13E-07*  0.92E-03   42  89 1 -0.51E-04   0.48   0.44    QN   YES    0:00:01
       61   1   19    1  -623.94557945   -0.75E-07*  0.78E-03   42  89 1 -0.28E-04   0.48   1.79    QN   YES    0:00:00
       62   1   18    1  -623.94557951   -0.65E-07*  0.32E-03   42  89 1  0.18E-04   0.48   1.65    QN   YES    0:00:00
       63   1   15    1  -623.94557955   -0.38E-07*  0.47E-03   42  89 1  0.27E-04   0.48   2.50    LS   YES    0:00:00
       64   1   21    1  -623.94557956   -0.15E-07*  0.45E-03   42  89 1  0.40E-04   0.48   0.76    QN   YES    0:00:01
       65   1   19    1  -623.94557960   -0.33E-07*  0.11E-02   79  97 1 -0.22E-04   0.48   1.91    QN   YES    0:00:01
       66   1   16    1  -623.94557964   -0.43E-07*  0.37E-03   87  92 1 -0.19E-04   0.48   1.61    QN   YES    0:00:01
       67   1   16    1  -623.94557966   -0.20E-07*  0.55E-03   42  89 1 -0.23E-04   0.48   2.50    LS   YES    0:00:01
       68   1   20    1  -623.94557967   -0.12E-07*  0.29E-03   42  89 1 -0.33E-04   0.48   0.98    QN   YES    0:00:01
       69   1   17    1  -623.94557969   -0.20E-07*  0.58E-03   79  97 1  0.18E-04   0.48   2.18    QN   YES    0:00:00
       70   1   16    1  -623.94557971   -0.22E-07* -0.13E-03   71  89 1 -0.12E-04   0.48   1.21    QN   YES    0:00:00
       71   1   14    1  -623.94557972   -0.63E-08   0.26E-03   42  89 1  0.11E-04   0.48   1.44    QN   YES    0:00:00
      Convergence after 71 iterations
       72   1   14    1  -623.94557973   -0.81E-08   0.26E-03   78  89 1  0.77E-05   0.48   1.44    QN   YES    0:00:00
 
      ************************************************************************************************************************
                                                      Wave function printout:
                       occupation of active orbitals, and spin coupling of open shells (u,d: Spin up or down)
      ************************************************************************************************************************
 
      Note: transformation to natural orbitals
      has been made, which may change the order of the CSFs.
 
      printout of CI-coefficients larger than  0.05 for root  1
      energy=  -29623.945580
      conf/sym  111111     Coeff  Weight
            56  uu0u02   0.96434 0.92995
            66  u0u0u2  -0.25637 0.06572
 
      Natural orbitals and occupation numbers for root  1
      sym 1:   1.001194   0.933738   0.068656   0.933442   0.068745   1.994225
 
      ************************************************************************************************************************
      *                                                                                                                      *
      *                                                    Final results                                                     *
      *                                                                                                                      *
      ************************************************************************************************************************
 
 
++    Wave function specifications:
      -----------------------------
 
      Number of closed shell electrons         162
      Number of electrons in active shells       5
      Max number of holes in RAS1 space          0
      Max nr of electrons in RAS3 space          0
      Number of inactive orbitals               81
      Number of active orbitals                  6
      Number of secondary orbitals              19
      Spin quantum number                      1.5
      State symmetry                             1
--
 
++    Orbital specifications:
      -----------------------
 
      Symmetry species                           1
                                                 a
      Frozen orbitals                            0
      Inactive orbitals                         81
      Active orbitals                            6
      RAS1 orbitals                              0
      RAS2 orbitals                              6
      RAS3 orbitals                              0
      Secondary orbitals                        19
      Deleted orbitals                           0
      Number of basis functions                106
--
 
++    CI expansion specifications:
      ----------------------------
 
      Number of CSFs                            84
      Number of determinants                    90
      Number of root(s) required                 1
      CI root used                               1
      highest root included in the CI            1
      Root passed to geometry opt.               1
--
 
++    Final optimization conditions:
      ------------------------------
 
      Average CI energy                          -29623.94557973
      RASSCF energy for state  1                 -29623.94557973
      Super-CI energy                                -0.00000000
      RASSCF energy change                           -0.00000001
      Max change in MO coefficients              -0.246E-03
      Max non-diagonal density matrix element     0.256E-03
      Maximum BLB matrix element                  0.767E-05
      (orbital pair  78,  89 in symmetry   1)
      Norm of electronic gradient            0.377E-04
--
 
 
      Final state energy(ies):
      ------------------------
 
::    RASSCF root number  1 Total energy: -29623.94557973
 
++    Molecular orbitals:
      -------------------
 
      Pseudonatural active orbitals and approximate occupation numbers
 
 
 
 
      Molecular orbitals for symmetry species 1: a  
 
 
      Orbital                1         2         3         4         5         6         7         8         9        10
      Energy        -4373.3101 -828.9883 -693.3341 -693.3341 -693.3334 -213.4096 -175.1384 -175.1364 -175.1321 -139.4960
      Occ. No.          2.0000    2.0000    2.0000    2.0000    2.0000    2.0000    2.0000    2.0000    2.0000    2.0000
 
    1 C1     1s        -0.0000   -0.0000    0.0000    0.0000    0.0000   -0.0000   -0.0000    0.0000    0.0000   -0.0000
    2 C1     2s        -0.0000   -0.0000   -0.0000    0.0000    0.0000   -0.0000    0.0000   -0.0000   -0.0000    0.0000
    3 C1     2px       -0.0000   -0.0000   -0.0000    0.0000   -0.0000   -0.0000    0.0000   -0.0000   -0.0000    0.0000
    4 C1     2py        0.0000    0.0000    0.0000    0.0000    0.0000    0.0000    0.0000    0.0000    0.0000   -0.0000
    5 C1     2pz       -0.0000   -0.0000   -0.0000    0.0000   -0.0000   -0.0000   -0.0000    0.0000   -0.0000   -0.0000
    6 S2     1s        -0.0000   -0.0000   -0.0000   -0.0000   -0.0000   -0.0000    0.0000   -0.0000   -0.0000    0.0000
    7 S2     2s        -0.0000   -0.0000   -0.0000   -0.0000   -0.0000   -0.0000    0.0000   -0.0000   -0.0000    0.0000
    8 S2     3s        -0.0000   -0.0000   -0.0000   -0.0000   -0.0000   -0.0000    0.0000   -0.0000    0.0000    0.0000
    9 S2     2px        0.0000    0.0000   -0.0000    0.0000   -0.0000    0.0000    0.0000   -0.0000   -0.0000    0.0000
   10 S2     3px        0.0000    0.0000   -0.0000   -0.0000   -0.0000    0.0000   -0.0000   -0.0000   -0.0000    0.0000
   11 S2     2py       -0.0000   -0.0000    0.0000    0.0000    0.0000   -0.0000    0.0000    0.0000    0.0000   -0.0000
   12 S2     3py       -0.0000   -0.0000    0.0000   -0.0000    0.0000   -0.0000   -0.0000    0.0000    0.0000   -0.0000
   13 S2     2pz       -0.0000   -0.0000   -0.0000   -0.0000    0.0000   -0.0000   -0.0000    0.0000    0.0000   -0.0000
   14 S2     3pz       -0.0000   -0.0000    0.0000   -0.0000    0.0000   -0.0000   -0.0000    0.0000    0.0000   -0.0000
   15 O3     1s         0.0000    0.0000   -0.0000   -0.0000   -0.0000    0.0000   -0.0000   -0.0000   -0.0000   -0.0000
   16 O3     2s         0.0000    0.0000    0.0000   -0.0000    0.0000    0.0000   -0.0000    0.0000    0.0000   -0.0000
   17 O3     2px        0.0000    0.0000    0.0000    0.0000    0.0000    0.0000    0.0000    0.0000    0.0000   -0.0000
   18 O3     2py       -0.0000   -0.0000   -0.0000   -0.0000   -0.0000   -0.0000    0.0000   -0.0000   -0.0000    0.0000
   19 O3     2pz       -0.0000   -0.0000   -0.0000    0.0000   -0.0000   -0.0000   -0.0000   -0.0000   -0.0000   -0.0000
   20 NP4    1s         1.0000   -0.0000   -0.0000   -0.0000   -0.0000    0.0000   -0.0000    0.0000    0.0000   -0.0000
   21 NP4    2s         0.0000    1.0000   -0.0000   -0.0000   -0.0000   -0.0000   -0.0000   -0.0000   -0.0000    0.0000
   22 NP4    3s        -0.0000    0.0000    0.0000    0.0000    0.0000    1.0000   -0.0000   -0.0001   -0.0000    0.0000
   23 NP4    4s         0.0000   -0.0000   -0.0000    0.0000   -0.0000   -0.0000   -0.0000    0.0000    0.0000   -0.0000
   24 NP4    5s        -0.0000    0.0000    0.0000   -0.0000    0.0000    0.0000    0.0000   -0.0000   -0.0000   -0.0000
   25 NP4    6s         0.0000   -0.0000    0.0000    0.0000   -0.0000    0.0000    0.0000   -0.0000   -0.0000    0.0000
   26 NP4    7s        -0.0000   -0.0000    0.0000    0.0000    0.0000   -0.0000    0.0000    0.0000   -0.0000   -0.0000
   27 NP4    2px        0.0000    0.0000    0.7949    0.6026    0.0707   -0.0000   -0.0000   -0.0000   -0.0000    0.0000
   28 NP4    3px       -0.0000    0.0000    0.0000    0.0000    0.0000    0.0001    0.5948    0.8018    0.0576    0.0000
   29 NP4    4px        0.0000   -0.0000   -0.0000   -0.0000   -0.0000    0.0000   -0.0000   -0.0000   -0.0000   -0.0000
   30 NP4    5px       -0.0000    0.0000    0.0000    0.0000    0.0000   -0.0000    0.0000    0.0000    0.0000   -0.0000
   31 NP4    6px       -0.0000   -0.0000    0.0000   -0.0000    0.0000    0.0000   -0.0000    0.0000    0.0000   -0.0000
   32 NP4    7px       -0.0000   -0.0000    0.0000    0.0000    0.0000   -0.0000    0.0000   -0.0000    0.0000    0.0000
   33 NP4    2py       -0.0000   -0.0000   -0.6008    0.7980   -0.0459    0.0000   -0.0000    0.0000    0.0000    0.0000
   34 NP4    3py        0.0000   -0.0000   -0.0000    0.0000   -0.0000   -0.0001    0.8039   -0.5935   -0.0394    0.0000
   35 NP4    4py       -0.0000    0.0000    0.0000   -0.0000    0.0000   -0.0000   -0.0000    0.0000    0.0000   -0.0000
   36 NP4    5py        0.0000   -0.0000   -0.0000    0.0000   -0.0000    0.0000    0.0000   -0.0000   -0.0000    0.0000
   37 NP4    6py        0.0000    0.0000   -0.0000   -0.0000   -0.0000   -0.0000   -0.0000   -0.0000   -0.0000    0.0000
   38 NP4    7py        0.0000    0.0000   -0.0000    0.0000   -0.0000    0.0000    0.0000    0.0000   -0.0000   -0.0000
   39 NP4    2pz        0.0000   -0.0000   -0.0841   -0.0060    0.9964    0.0000    0.0000    0.0000   -0.0000   -0.0000
   40 NP4    3pz       -0.0000   -0.0000   -0.0000   -0.0000    0.0000   -0.0000   -0.0026   -0.0698    0.9976   -0.0000
   41 NP4    4pz        0.0000    0.0000    0.0000    0.0000   -0.0000   -0.0000    0.0000    0.0000   -0.0000   -0.0000
   42 NP4    5pz       -0.0000   -0.0000   -0.0000   -0.0000    0.0000   -0.0000   -0.0000   -0.0000    0.0000    0.0000
   43 NP4    6pz        0.0000    0.0000   -0.0000   -0.0000    0.0000    0.0000    0.0000   -0.0000    0.0000    0.0000
   44 NP4    7pz       -0.0000   -0.0000   -0.0000   -0.0000    0.0000   -0.0000   -0.0000   -0.0000    0.0000    0.0000
   45 NP4    3d2-      -0.0000    0.0000   -0.0000    0.0000   -0.0000    0.0000    0.0000   -0.0001   -0.0000   -0.0256
   46 NP4    4d2-      -0.0000    0.0000    0.0000   -0.0000    0.0000    0.0000    0.0000   -0.0000   -0.0000    0.0000
   47 NP4    5d2-       0.0000   -0.0000   -0.0000    0.0000   -0.0000    0.0000   -0.0000    0.0000    0.0000   -0.0000
   48 NP4    6d2-       0.0000    0.0000   -0.0000    0.0000    0.0000    0.0000    0.0000    0.0000    0.0000    0.0000
   49 NP4    3d1-      -0.0000    0.0000    0.0000   -0.0000   -0.0000    0.0000   -0.0000    0.0000   -0.0001    0.8016
   50 NP4    4d1-       0.0000   -0.0000   -0.0000    0.0000    0.0000    0.0000   -0.0000    0.0000   -0.0000   -0.0000
   51 NP4    5d1-      -0.0000    0.0000    0.0000   -0.0000   -0.0000   -0.0000    0.0000   -0.0000    0.0000    0.0000
   52 NP4    6d1-      -0.0000   -0.0000   -0.0000   -0.0000    0.0000   -0.0000   -0.0000   -0.0000   -0.0000   -0.0000
   53 NP4    3d0        0.0000   -0.0000   -0.0000   -0.0000   -0.0000   -0.0001   -0.0000   -0.0001   -0.0000   -0.0010
   54 NP4    4d0       -0.0000    0.0000    0.0000    0.0000    0.0000   -0.0000   -0.0000   -0.0000   -0.0000    0.0000
   55 NP4    5d0        0.0000    0.0000   -0.0000   -0.0000   -0.0000    0.0000    0.0000    0.0000    0.0000    0.0000
   56 NP4    6d0        0.0000    0.0000   -0.0000   -0.0000   -0.0000    0.0000   -0.0000    0.0000   -0.0000   -0.0000
   57 NP4    3d1+       0.0000   -0.0000   -0.0000   -0.0000    0.0000   -0.0000   -0.0000   -0.0000    0.0001    0.5941
   58 NP4    4d1+      -0.0000    0.0000    0.0000    0.0000   -0.0000   -0.0000   -0.0000   -0.0000    0.0000   -0.0000
   59 NP4    5d1+       0.0000   -0.0000   -0.0000   -0.0000    0.0000    0.0000    0.0000    0.0000   -0.0000    0.0000
   60 NP4    6d1+       0.0000    0.0000    0.0000   -0.0000   -0.0000    0.0000   -0.0000    0.0000    0.0000   -0.0000
   61 NP4    3d2+       0.0000   -0.0000    0.0000    0.0000    0.0000   -0.0000    0.0001    0.0000    0.0000   -0.0616
   62 NP4    4d2+       0.0000   -0.0000   -0.0000   -0.0000   -0.0000   -0.0000    0.0000    0.0000    0.0000    0.0000
   63 NP4    5d2+      -0.0000    0.0000    0.0000    0.0000    0.0000   -0.0000   -0.0000   -0.0000   -0.0000   -0.0000
   64 NP4    6d2+      -0.0000   -0.0000    0.0000    0.0000   -0.0000   -0.0000    0.0000   -0.0000   -0.0000    0.0000
   65 NP4    4f3-       0.0000   -0.0000    0.0000    0.0000    0.0000    0.0000    0.0000    0.0000    0.0000    0.0000
   66 NP4    5f3-       0.0000    0.0000    0.0000   -0.0000   -0.0000    0.0000   -0.0000   -0.0000   -0.0000   -0.0000
   67 NP4    4f2-      -0.0000    0.0000    0.0000   -0.0000    0.0000    0.0000   -0.0000    0.0000    0.0000    0.0000
   68 NP4    5f2-      -0.0000   -0.0000    0.0000    0.0000   -0.0000   -0.0000    0.0000    0.0000   -0.0000   -0.0000
   69 NP4    4f1-       0.0000    0.0000    0.0000   -0.0000    0.0000    0.0000   -0.0000    0.0000    0.0000   -0.0000
   70 NP4    5f1-      -0.0000   -0.0000    0.0000    0.0000   -0.0000   -0.0000    0.0000    0.0000   -0.0000    0.0000
   71 NP4    4f0        0.0000    0.0000    0.0000    0.0000   -0.0000    0.0000    0.0000    0.0000   -0.0000   -0.0000
   72 NP4    5f0       -0.0000   -0.0000    0.0000   -0.0000    0.0000   -0.0000   -0.0000    0.0000    0.0000    0.0000
   73 NP4    4f1+      -0.0000   -0.0000    0.0000   -0.0000   -0.0000   -0.0000   -0.0000   -0.0000   -0.0000   -0.0000
   74 NP4    5f1+       0.0000    0.0000   -0.0000    0.0000    0.0000    0.0000    0.0000   -0.0000    0.0000    0.0000
   75 NP4    4f2+       0.0000   -0.0000   -0.0000   -0.0000   -0.0000   -0.0000   -0.0000   -0.0000   -0.0000    0.0000
   76 NP4    5f2+       0.0000    0.0000   -0.0000    0.0000    0.0000    0.0000    0.0000   -0.0000    0.0000   -0.0000
   77 NP4    4f3+       0.0000   -0.0000    0.0000   -0.0000    0.0000    0.0000   -0.0000    0.0000    0.0000   -0.0000
   78 NP4    5f3+       0.0000    0.0000    0.0000    0.0000    0.0000    0.0000    0.0000   -0.0000   -0.0000    0.0000
   79 O5     1s         0.0000    0.0000   -0.0000   -0.0000   -0.0000    0.0000   -0.0000   -0.0000   -0.0000   -0.0000
   80 O5     2s         0.0000    0.0000   -0.0000   -0.0000   -0.0000    0.0000   -0.0000   -0.0000   -0.0000   -0.0000
   81 O5     2px       -0.0000   -0.0000    0.0000    0.0000    0.0000   -0.0000    0.0000    0.0000    0.0000   -0.0000
   82 O5     2py        0.0000    0.0000   -0.0000   -0.0000   -0.0000    0.0000   -0.0000   -0.0000   -0.0000    0.0000
   83 O5     2pz        0.0000    0.0000   -0.0000   -0.0000   -0.0000    0.0000   -0.0000   -0.0000   -0.0000    0.0000
   84 O6     1s         0.0000    0.0000   -0.0000    0.0000   -0.0000    0.0000    0.0000   -0.0000   -0.0000    0.0000
   85 O6     2s         0.0000    0.0000    0.0000    0.0000    0.0000    0.0000    0.0000    0.0000    0.0000   -0.0000
   86 O6     2px        0.0000    0.0000    0.0000   -0.0000    0.0000    0.0000   -0.0000    0.0000    0.0000   -0.0000
   87 O6     2py       -0.0000   -0.0000   -0.0000    0.0000   -0.0000   -0.0000    0.0000   -0.0000   -0.0000    0.0000
   88 O6     2pz       -0.0000   -0.0000   -0.0000   -0.0000   -0.0000   -0.0000    0.0000   -0.0000   -0.0000    0.0000
   89 O7     1s         0.0000    0.0000    0.0000    0.0000   -0.0000    0.0000    0.0000   -0.0000   -0.0000    0.0000
   90 O7     2s        -0.0000   -0.0000    0.0000    0.0000   -0.0000   -0.0000    0.0000    0.0000   -0.0000    0.0000
   91 O7     2px        0.0000    0.0000   -0.0000   -0.0000   -0.0000    0.0000   -0.0000   -0.0000   -0.0000   -0.0000
   92 O7     2py       -0.0000   -0.0000    0.0000   -0.0000    0.0000   -0.0000   -0.0000    0.0000    0.0000   -0.0000
   93 O7     2pz        0.0000    0.0000   -0.0000   -0.0000    0.0000    0.0000    0.0000   -0.0000    0.0000    0.0000
   94 O8     1s         0.0000    0.0000   -0.0000   -0.0000    0.0000    0.0000    0.0000   -0.0000    0.0000    0.0000
   95 O8     2s        -0.0000   -0.0000   -0.0000   -0.0000    0.0000   -0.0000    0.0000   -0.0000    0.0000    0.0000
   96 O8     2px       -0.0000    0.0000   -0.0000   -0.0000   -0.0000   -0.0000   -0.0000   -0.0000   -0.0000    0.0000
   97 O8     2py        0.0000   -0.0000    0.0000   -0.0000    0.0000    0.0000   -0.0000    0.0000    0.0000    0.0000
   98 O8     2pz       -0.0000   -0.0000    0.0000    0.0000    0.0000   -0.0000   -0.0000    0.0000    0.0000   -0.0000
   99 H9     1s         0.0000    0.0000    0.0000   -0.0000    0.0000    0.0000   -0.0000    0.0000    0.0000    0.0000
  100 H10    1s        -0.0000   -0.0000   -0.0000   -0.0000   -0.0000   -0.0000    0.0000   -0.0000   -0.0000    0.0000
  101 H11    1s         0.0000    0.0000    0.0000    0.0000    0.0000    0.0000    0.0000    0.0000    0.0000   -0.0000
  102 O12    1s         0.0000    0.0000   -0.0000    0.0000   -0.0000    0.0000    0.0000   -0.0000   -0.0000    0.0000
  103 O12    2s         0.0000    0.0000   -0.0000    0.0000   -0.0000    0.0000    0.0000   -0.0000   -0.0000    0.0000
  104 O12    2px       -0.0000   -0.0000    0.0000   -0.0000    0.0000   -0.0000   -0.0000    0.0000    0.0000   -0.0000
  105 O12    2py        0.0000    0.0000   -0.0000    0.0000   -0.0000    0.0000    0.0000   -0.0000   -0.0000    0.0000
  106 O12    2pz        0.0000    0.0000   -0.0000    0.0000   -0.0000    0.0000    0.0000   -0.0000   -0.0000   -0.0000
 
 
      Orbital               11        12        13        14        15        16        17        18        19        20
      Energy         -139.4955 -139.4954 -139.4949 -139.4924  -92.4186  -56.5381  -43.7717  -43.7675  -43.7603  -30.1157
      Occ. No.          2.0000    2.0000    2.0000    2.0000    2.0000    2.0000    2.0000    2.0000    2.0000    2.0000
 
    1 C1     1s         0.0000    0.0000   -0.0000   -0.0000   -0.0000   -0.0000    0.0000    0.0000    0.0000   -0.0000
    2 C1     2s        -0.0000    0.0000   -0.0000   -0.0000    0.0000   -0.0000   -0.0000    0.0000    0.0000   -0.0000
    3 C1     2px       -0.0000    0.0000    0.0000   -0.0000    0.0000   -0.0000    0.0000    0.0000   -0.0000    0.0000
    4 C1     2py        0.0000    0.0000   -0.0000    0.0000   -0.0000    0.0000    0.0000   -0.0000    0.0000   -0.0000
    5 C1     2pz        0.0000   -0.0000    0.0000    0.0000    0.0000   -0.0000    0.0000   -0.0000   -0.0000   -0.0000
    6 S2     1s        -0.0000   -0.0000    0.0000   -0.0000    1.0000   -0.0000    0.0000   -0.0000   -0.0000    0.0000
    7 S2     2s        -0.0000   -0.0000    0.0000   -0.0000   -0.0000   -0.0000    0.0000   -0.0000   -0.0000    0.0000
    8 S2     3s        -0.0000   -0.0000    0.0000   -0.0000   -0.0004   -0.0000    0.0000   -0.0000   -0.0000    0.0000
    9 S2     2px       -0.0000   -0.0000    0.0000   -0.0000    0.0001    0.0000    0.0000   -0.0000   -0.0000    0.0000
   10 S2     3px       -0.0000   -0.0000    0.0000   -0.0000   -0.0000    0.0000    0.0000   -0.0000   -0.0000    0.0000
   11 S2     2py        0.0000   -0.0000   -0.0000    0.0000   -0.0001   -0.0000    0.0000    0.0000    0.0000   -0.0000
   12 S2     3py        0.0000   -0.0000   -0.0000    0.0000    0.0000   -0.0000    0.0000    0.0000    0.0000   -0.0000
   13 S2     2pz        0.0000    0.0000   -0.0000    0.0000   -0.0001   -0.0000    0.0000   -0.0000    0.0000   -0.0000
   14 S2     3pz        0.0000    0.0000   -0.0000    0.0000    0.0000   -0.0000    0.0000   -0.0000    0.0000   -0.0000
   15 O3     1s        -0.0000    0.0000    0.0000   -0.0000    0.0000    0.0000   -0.0000   -0.0000   -0.0000    0.0000
   16 O3     2s         0.0000    0.0000   -0.0000    0.0000    0.0000    0.0000   -0.0000   -0.0000   -0.0000   -0.0000
   17 O3     2px        0.0000   -0.0000   -0.0000    0.0000    0.0000    0.0000    0.0000   -0.0001   -0.0000   -0.0000
   18 O3     2py       -0.0000   -0.0000    0.0000   -0.0000    0.0000   -0.0000    0.0000    0.0000    0.0000    0.0000
   19 O3     2pz       -0.0000    0.0000   -0.0000   -0.0000   -0.0000   -0.0000   -0.0000    0.0000    0.0000    0.0000
   20 NP4    1s         0.0000   -0.0000   -0.0000   -0.0000   -0.0000   -0.0000    0.0000   -0.0000   -0.0000    0.0000
   21 NP4    2s        -0.0000    0.0000    0.0000    0.0000   -0.0000    0.0000    0.0000    0.0000    0.0000    0.0000
   22 NP4    3s        -0.0000    0.0000    0.0000    0.0000   -0.0000    0.0000    0.0000   -0.0000   -0.0000   -0.0000
   23 NP4    4s        -0.0000    0.0000   -0.0000    0.0000   -0.0000    1.0000   -0.0000   -0.0006   -0.0000   -0.0002
   24 NP4    5s         0.0000   -0.0000   -0.0000   -0.0000   -0.0000   -0.0001   -0.0000    0.0000    0.0000    0.0000
   25 NP4    6s        -0.0000    0.0000    0.0000    0.0000   -0.0000    0.0000   -0.0000    0.0000    0.0000    0.0000
   26 NP4    7s         0.0000   -0.0000   -0.0000   -0.0000   -0.0000   -0.0000   -0.0000    0.0000    0.0000    0.0000
   27 NP4    2px        0.0000   -0.0000   -0.0000    0.0000    0.0000    0.0000    0.0000    0.0000    0.0000   -0.0000
   28 NP4    3px        0.0001   -0.0001   -0.0000    0.0001    0.0000   -0.0000    0.0000    0.0000    0.0000    0.0000
   29 NP4    4px       -0.0000    0.0000    0.0000   -0.0000    0.0000    0.0005    0.5947    0.8015    0.0624    0.0002
   30 NP4    5px        0.0000    0.0000   -0.0000    0.0000    0.0000   -0.0000   -0.0001   -0.0003   -0.0000   -0.0000
   31 NP4    6px        0.0001   -0.0000   -0.0000    0.0000    0.0000    0.0000    0.0000   -0.0007   -0.0000   -0.0003
   32 NP4    7px       -0.0000   -0.0000    0.0000   -0.0000    0.0000   -0.0000   -0.0000    0.0001    0.0000    0.0000
   33 NP4    2py       -0.0000   -0.0000    0.0000   -0.0000   -0.0000   -0.0000    0.0000   -0.0000   -0.0000    0.0000
   34 NP4    3py       -0.0000   -0.0001    0.0000   -0.0001   -0.0000    0.0000    0.0000   -0.0000   -0.0000   -0.0000
   35 NP4    4py        0.0000    0.0000   -0.0000    0.0000   -0.0000   -0.0003    0.8040   -0.5931   -0.0427   -0.0002
   36 NP4    5py       -0.0000    0.0000    0.0000   -0.0000   -0.0000    0.0000   -0.0002    0.0002    0.0000    0.0000
   37 NP4    6py       -0.0000   -0.0000    0.0000   -0.0000   -0.0000   -0.0000    0.0000    0.0005    0.0000    0.0002
   38 NP4    7py        0.0000   -0.0000   -0.0000    0.0000   -0.0000    0.0000   -0.0000   -0.0000   -0.0000   -0.0000
   39 NP4    2pz       -0.0000    0.0000   -0.0000   -0.0000   -0.0000   -0.0000   -0.0000   -0.0000    0.0000    0.0000
   40 NP4    3pz       -0.0000    0.0000   -0.0001   -0.0000   -0.0000    0.0000   -0.0000   -0.0000    0.0000   -0.0000
   41 NP4    4pz        0.0000   -0.0000    0.0000    0.0000   -0.0000   -0.0000   -0.0028   -0.0756    0.9971   -0.0000
   42 NP4    5pz       -0.0000    0.0000   -0.0000   -0.0000   -0.0000    0.0000    0.0000    0.0000   -0.0002    0.0000
   43 NP4    6pz       -0.0000   -0.0000    0.0000   -0.0000   -0.0000   -0.0000   -0.0000    0.0000    0.0000    0.0000
   44 NP4    7pz        0.0000   -0.0000    0.0000    0.0000   -0.0000   -0.0000    0.0000   -0.0000   -0.0000   -0.0000
   45 NP4    3d2-       0.9268    0.2837   -0.1092    0.2192    0.0000    0.0000   -0.0000    0.0000    0.0000    0.0000
   46 NP4    4d2-      -0.0000   -0.0000    0.0000   -0.0000    0.0000    0.0001    0.0001   -0.0004   -0.0000    0.8924
   47 NP4    5d2-       0.0000    0.0000   -0.0000    0.0000    0.0000   -0.0000   -0.0000   -0.0000   -0.0000   -0.0003
   48 NP4    6d2-       0.0000   -0.0000   -0.0000   -0.0000    0.0000    0.0000    0.0000   -0.0001   -0.0000    0.0000
   49 NP4    3d1-      -0.0538    0.0594   -0.5904   -0.0497    0.0000   -0.0000    0.0000   -0.0000    0.0000   -0.0000
   50 NP4    4d1-       0.0000   -0.0000    0.0000    0.0000    0.0000    0.0000   -0.0000    0.0000   -0.0002   -0.0235
   51 NP4    5d1-      -0.0000   -0.0000   -0.0000   -0.0000    0.0000   -0.0000    0.0000    0.0000    0.0000    0.0000
   52 NP4    6d1-      -0.0000   -0.0000    0.0000    0.0000   -0.0000   -0.0000   -0.0000    0.0000   -0.0000    0.0000
   53 NP4    3d0       -0.2373    0.0025   -0.0611    0.9695    0.0000   -0.0000    0.0000    0.0000    0.0000   -0.0000
   54 NP4    4d0        0.0000   -0.0000    0.0000   -0.0000    0.0000   -0.0002   -0.0000   -0.0003   -0.0000   -0.3585
   55 NP4    5d0       -0.0000    0.0000    0.0000    0.0000    0.0000    0.0000   -0.0000   -0.0000    0.0000    0.0001
   56 NP4    6d0        0.0000   -0.0000   -0.0000   -0.0000    0.0000    0.0000    0.0000   -0.0001   -0.0000   -0.0000
   57 NP4    3d1+       0.0839    0.0312    0.7962    0.0712   -0.0000    0.0000    0.0000    0.0000   -0.0000    0.0000
   58 NP4    4d1+      -0.0000   -0.0000   -0.0000   -0.0000   -0.0000   -0.0000   -0.0000   -0.0000    0.0003    0.0260
   59 NP4    5d1+       0.0000   -0.0000    0.0000    0.0000   -0.0000    0.0000    0.0000   -0.0000   -0.0000   -0.0000
   60 NP4    6d1+       0.0000    0.0000   -0.0000   -0.0000    0.0000    0.0000   -0.0000   -0.0000    0.0000   -0.0000
   61 NP4    3d2+      -0.2736    0.9566    0.0432   -0.0668   -0.0000   -0.0000   -0.0000   -0.0000   -0.0000   -0.0000
   62 NP4    4d2+       0.0000   -0.0000   -0.0000    0.0000   -0.0000   -0.0000    0.0004    0.0001    0.0000   -0.2719
   63 NP4    5d2+      -0.0000    0.0000    0.0000   -0.0000   -0.0000    0.0000   -0.0000    0.0000    0.0000    0.0001
   64 NP4    6d2+      -0.0000   -0.0000    0.0000    0.0000   -0.0000   -0.0000    0.0000    0.0000    0.0000   -0.0000
   65 NP4    4f3-       0.0000   -0.0000   -0.0000    0.0000   -0.0000   -0.0000    0.0000    0.0001    0.0000    0.0003
   66 NP4    5f3-      -0.0000    0.0000    0.0000   -0.0000   -0.0000    0.0000    0.0000   -0.0000   -0.0000   -0.0000
   67 NP4    4f2-      -0.0000    0.0000   -0.0000   -0.0000   -0.0000    0.0000   -0.0000    0.0000    0.0001   -0.0000
   68 NP4    5f2-       0.0000   -0.0000    0.0000    0.0000    0.0000   -0.0000    0.0000   -0.0000   -0.0000   -0.0000
   69 NP4    4f1-      -0.0000   -0.0000    0.0000   -0.0000    0.0000    0.0000   -0.0001    0.0001    0.0000   -0.0000
   70 NP4    5f1-       0.0000    0.0000   -0.0000    0.0000    0.0000   -0.0000    0.0000   -0.0000   -0.0000   -0.0000
   71 NP4    4f0       -0.0000    0.0000   -0.0000   -0.0000   -0.0000    0.0000    0.0000    0.0000   -0.0000   -0.0000
   72 NP4    5f0        0.0000   -0.0000    0.0000    0.0000   -0.0000   -0.0000    0.0000   -0.0000    0.0000   -0.0000
   73 NP4    4f1+       0.0000   -0.0000   -0.0000    0.0000   -0.0000   -0.0000   -0.0001   -0.0001   -0.0000    0.0000
   74 NP4    5f1+      -0.0000    0.0000    0.0000   -0.0000   -0.0000    0.0000    0.0000    0.0000    0.0000    0.0000
   75 NP4    4f2+       0.0000    0.0000    0.0000    0.0000    0.0000   -0.0000   -0.0000   -0.0000   -0.0000    0.0000
   76 NP4    5f2+      -0.0000   -0.0000   -0.0000   -0.0000   -0.0000    0.0000    0.0000    0.0000    0.0000    0.0000
   77 NP4    4f3+       0.0000    0.0000   -0.0000    0.0000   -0.0000   -0.0000   -0.0001    0.0000    0.0000    0.0001
   78 NP4    5f3+      -0.0000   -0.0000    0.0000   -0.0000   -0.0000    0.0000   -0.0000   -0.0000   -0.0000   -0.0000
   79 O5     1s         0.0000    0.0000   -0.0000   -0.0000   -0.0000    0.0000   -0.0000   -0.0000   -0.0000    0.0000
   80 O5     2s        -0.0000    0.0000    0.0000   -0.0000   -0.0000    0.0000   -0.0000    0.0000    0.0000    0.0000
   81 O5     2px        0.0000    0.0000   -0.0000    0.0000   -0.0000   -0.0000    0.0000   -0.0001   -0.0000   -0.0001
   82 O5     2py       -0.0000   -0.0000    0.0000   -0.0000   -0.0000    0.0000   -0.0000    0.0001    0.0000    0.0000
   83 O5     2pz       -0.0000   -0.0000    0.0000   -0.0000    0.0000    0.0000   -0.0000    0.0000    0.0000    0.0000
   84 O6     1s        -0.0000   -0.0000    0.0000   -0.0000    0.0000    0.0000    0.0000   -0.0000   -0.0000    0.0000
   85 O6     2s         0.0000   -0.0000   -0.0000    0.0000    0.0000    0.0000    0.0000   -0.0000   -0.0000   -0.0000
   86 O6     2px        0.0000   -0.0000   -0.0000    0.0000   -0.0000    0.0000    0.0000   -0.0001   -0.0000   -0.0000
   87 O6     2py       -0.0000   -0.0000    0.0000   -0.0000   -0.0000   -0.0000    0.0000    0.0001    0.0000    0.0000
   88 O6     2pz       -0.0000    0.0000   -0.0000   -0.0000   -0.0000   -0.0000   -0.0000    0.0000    0.0000    0.0000
   89 O7     1s        -0.0000    0.0000   -0.0000   -0.0000    0.0000    0.0000   -0.0000    0.0000   -0.0000   -0.0000
   90 O7     2s        -0.0000    0.0000   -0.0000   -0.0000    0.0000   -0.0000   -0.0000    0.0000   -0.0000   -0.0000
   91 O7     2px       -0.0000   -0.0000    0.0000   -0.0000   -0.0000   -0.0000   -0.0000    0.0001    0.0000    0.0001
   92 O7     2py        0.0000   -0.0000   -0.0000    0.0000    0.0000    0.0000   -0.0000   -0.0001   -0.0000   -0.0000
   93 O7     2pz       -0.0000    0.0000    0.0000    0.0000    0.0000    0.0000   -0.0000    0.0000   -0.0000    0.0000
   94 O8     1s        -0.0000   -0.0000    0.0000   -0.0000    0.0000    0.0000   -0.0000    0.0000    0.0000   -0.0000
   95 O8     2s        -0.0000   -0.0000    0.0000   -0.0000    0.0000   -0.0000   -0.0000    0.0000    0.0000   -0.0000
   96 O8     2px       -0.0000    0.0000    0.0000   -0.0000   -0.0000   -0.0000   -0.0000    0.0001    0.0000    0.0001
   97 O8     2py        0.0000   -0.0000   -0.0000    0.0000    0.0000    0.0000   -0.0000   -0.0001   -0.0000   -0.0000
   98 O8     2pz        0.0000   -0.0000   -0.0000   -0.0000   -0.0000   -0.0000    0.0000   -0.0001   -0.0000   -0.0000
   99 H9     1s        -0.0000    0.0000   -0.0000    0.0000   -0.0000    0.0000   -0.0000    0.0000    0.0000   -0.0000
  100 H10    1s        -0.0000   -0.0000    0.0000    0.0000   -0.0000   -0.0000   -0.0000   -0.0000   -0.0000    0.0000
  101 H11    1s        -0.0000   -0.0000   -0.0000    0.0000   -0.0000    0.0000    0.0000    0.0000    0.0000   -0.0000
  102 O12    1s         0.0000   -0.0000   -0.0000   -0.0000   -0.0000    0.0000    0.0000   -0.0000   -0.0000    0.0000
  103 O12    2s        -0.0000   -0.0000    0.0000   -0.0000   -0.0000    0.0000    0.0000    0.0000    0.0000    0.0000
  104 O12    2px        0.0000   -0.0000   -0.0000    0.0000    0.0000   -0.0000   -0.0000   -0.0001   -0.0000   -0.0001
  105 O12    2py       -0.0000    0.0000    0.0000   -0.0000    0.0000    0.0000    0.0000    0.0001    0.0000    0.0000
  106 O12    2pz       -0.0000    0.0000    0.0000   -0.0000    0.0000    0.0000    0.0000    0.0000    0.0000    0.0000
 
 
      Orbital               21        22        23        24        25        26        27        28        29        30
      Energy          -30.1150  -30.1103  -30.1095  -30.1065  -20.4193  -20.4068  -20.2672  -20.2668  -20.2531  -20.2526
      Occ. No.          2.0000    2.0000    2.0000    2.0000    2.0000    2.0000    2.0000    2.0000    2.0000    2.0000
 
    1 C1     1s        -0.0000   -0.0000   -0.0000    0.0000    0.0000   -0.0000    0.0000   -0.0000    0.0000    0.0000
    2 C1     2s        -0.0000   -0.0000   -0.0000    0.0000    0.0000   -0.0000   -0.0000    0.0000   -0.0000   -0.0000
    3 C1     2px       -0.0000    0.0000    0.0000   -0.0000    0.0000    0.0000    0.0000   -0.0000   -0.0000   -0.0000
    4 C1     2py       -0.0000   -0.0000   -0.0000    0.0000   -0.0000   -0.0000    0.0000    0.0000    0.0000    0.0000
    5 C1     2pz       -0.0000   -0.0000   -0.0000   -0.0000    0.0000    0.0000   -0.0000    0.0000   -0.0000   -0.0000
    6 S2     1s         0.0000    0.0000    0.0000   -0.0000    0.0000    0.0000   -0.0000    0.0000   -0.0000   -0.0000
    7 S2     2s         0.0000    0.0000    0.0000   -0.0000    0.0000    0.0000   -0.0002    0.0002   -0.0000   -0.0000
    8 S2     3s         0.0000    0.0000    0.0000   -0.0000    0.0000    0.0000   -0.0009    0.0009   -0.0000   -0.0000
    9 S2     2px        0.0000    0.0000    0.0000   -0.0000    0.0000    0.0000   -0.0001    0.0000   -0.0000   -0.0000
   10 S2     3px       -0.0000    0.0000    0.0000   -0.0000    0.0000    0.0000   -0.0009    0.0000   -0.0000    0.0000
   11 S2     2py        0.0000   -0.0000   -0.0000    0.0000   -0.0000   -0.0000   -0.0000   -0.0001    0.0000    0.0000
   12 S2     3py       -0.0000   -0.0000    0.0000    0.0000   -0.0000   -0.0000   -0.0003   -0.0009   -0.0000    0.0000
   13 S2     2pz       -0.0000   -0.0000   -0.0000    0.0000    0.0000   -0.0000   -0.0000    0.0000   -0.0000   -0.0000
   14 S2     3pz       -0.0000   -0.0000   -0.0000    0.0000    0.0000   -0.0000   -0.0001    0.0001   -0.0000   -0.0000
   15 O3     1s        -0.0000    0.0000   -0.0000   -0.0000   -0.0000   -0.0000   -0.0303   -0.9996    0.0000    0.0000
   16 O3     2s        -0.0000    0.0000   -0.0000   -0.0000    0.0000    0.0000   -0.0000   -0.0018   -0.0000   -0.0000
   17 O3     2px        0.0000   -0.0000   -0.0000    0.0000   -0.0000   -0.0000    0.0001   -0.0004    0.0000   -0.0000
   18 O3     2py        0.0000    0.0000    0.0000    0.0000   -0.0000   -0.0000   -0.0001   -0.0018    0.0000    0.0000
   19 O3     2pz       -0.0000    0.0000    0.0000    0.0000    0.0000   -0.0000    0.0000    0.0002   -0.0000   -0.0000
   20 NP4    1s        -0.0000   -0.0000   -0.0000    0.0000   -0.0000   -0.0000   -0.0000    0.0000   -0.0000   -0.0000
   21 NP4    2s        -0.0000   -0.0000   -0.0000   -0.0000   -0.0000   -0.0000   -0.0000    0.0000   -0.0000   -0.0000
   22 NP4    3s        -0.0000    0.0000    0.0000    0.0000   -0.0000   -0.0000   -0.0000    0.0000   -0.0000   -0.0000
   23 NP4    4s         0.0000    0.0002    0.0000    0.0000   -0.0001   -0.0001   -0.0000    0.0000   -0.0000   -0.0000
   24 NP4    5s        -0.0000   -0.0000   -0.0000   -0.0000   -0.0002   -0.0002   -0.0000    0.0000   -0.0001   -0.0000
   25 NP4    6s         0.0000    0.0000    0.0000    0.0000   -0.0006   -0.0006   -0.0001    0.0001   -0.0003   -0.0002
   26 NP4    7s        -0.0000   -0.0000   -0.0000    0.0000   -0.0006   -0.0006   -0.0002    0.0002   -0.0006   -0.0003
   27 NP4    2px        0.0000   -0.0000    0.0000    0.0000    0.0000    0.0000    0.0000   -0.0000   -0.0000   -0.0000
   28 NP4    3px       -0.0000    0.0000   -0.0000   -0.0000    0.0000    0.0000    0.0000   -0.0000   -0.0000   -0.0000
   29 NP4    4px       -0.0002    0.0003   -0.0000   -0.0000    0.0000    0.0000    0.0000   -0.0000   -0.0000   -0.0000
   30 NP4    5px        0.0000   -0.0000    0.0000    0.0000   -0.0000    0.0000    0.0000   -0.0000   -0.0000   -0.0000
   31 NP4    6px       -0.0000   -0.0001   -0.0000    0.0000   -0.0000    0.0000    0.0001   -0.0001   -0.0004   -0.0001
   32 NP4    7px        0.0000    0.0000    0.0000   -0.0000    0.0000    0.0001    0.0002   -0.0002   -0.0006   -0.0002
   33 NP4    2py        0.0000    0.0000    0.0000   -0.0000   -0.0000   -0.0000   -0.0000    0.0000    0.0000    0.0000
   34 NP4    3py       -0.0000   -0.0000   -0.0000    0.0000   -0.0000   -0.0000   -0.0000    0.0000    0.0000    0.0000
   35 NP4    4py       -0.0003   -0.0002   -0.0000    0.0000   -0.0000   -0.0000   -0.0000    0.0000    0.0000    0.0000
   36 NP4    5py        0.0000    0.0000    0.0000   -0.0000    0.0000   -0.0000   -0.0000    0.0000    0.0000    0.0000
   37 NP4    6py       -0.0000    0.0001    0.0000   -0.0000    0.0000   -0.0000   -0.0001    0.0000    0.0002    0.0002
   38 NP4    7py        0.0000   -0.0000   -0.0000    0.0000   -0.0000   -0.0001   -0.0002    0.0002    0.0004    0.0003
   39 NP4    2pz       -0.0000    0.0000    0.0000    0.0000   -0.0000    0.0000    0.0000   -0.0000    0.0000    0.0000
   40 NP4    3pz        0.0000   -0.0000    0.0000   -0.0000   -0.0000    0.0000    0.0000   -0.0000    0.0000    0.0000
   41 NP4    4pz        0.0000   -0.0000    0.0000   -0.0003   -0.0000    0.0000    0.0000   -0.0000    0.0000    0.0000
   42 NP4    5pz       -0.0000    0.0000   -0.0000   -0.0000   -0.0001    0.0001    0.0000   -0.0000    0.0000    0.0000
   43 NP4    6pz        0.0000    0.0000    0.0000   -0.0000   -0.0006    0.0006    0.0000   -0.0000    0.0000    0.0000
   44 NP4    7pz       -0.0000    0.0000    0.0000   -0.0000   -0.0005    0.0005    0.0000   -0.0000    0.0000    0.0000
   45 NP4    3d2-       0.0000    0.0000    0.0000   -0.0000   -0.0000   -0.0000    0.0000   -0.0000    0.0000    0.0000
   46 NP4    4d2-       0.2908    0.3393    0.0290   -0.0562    0.0000    0.0000    0.0000   -0.0000    0.0000    0.0000
   47 NP4    5d2-      -0.0001   -0.0001   -0.0000    0.0000   -0.0000   -0.0000    0.0000   -0.0000    0.0000    0.0000
   48 NP4    6d2-       0.0000    0.0000    0.0000   -0.0000   -0.0000   -0.0000    0.0002   -0.0001    0.0004    0.0003
   49 NP4    3d1-      -0.0000   -0.0000    0.0000   -0.0000    0.0000    0.0000    0.0000    0.0000   -0.0000   -0.0000
   50 NP4    4d1-      -0.0566   -0.0563    0.8012   -0.5926   -0.0000    0.0000   -0.0000    0.0000   -0.0000   -0.0000
   51 NP4    5d1-       0.0000    0.0000   -0.0002    0.0001    0.0000    0.0000    0.0000    0.0000   -0.0000   -0.0000
   52 NP4    6d1-      -0.0000   -0.0000    0.0001   -0.0001   -0.0000    0.0001    0.0000    0.0000   -0.0000   -0.0000
   53 NP4    3d0        0.0000    0.0000    0.0000   -0.0000   -0.0000   -0.0000    0.0000   -0.0000    0.0000    0.0000
   54 NP4    4d0        0.0006    0.9316    0.0120   -0.0581   -0.0000   -0.0000    0.0000   -0.0000    0.0000    0.0000
   55 NP4    5d0       -0.0000   -0.0002   -0.0000    0.0000   -0.0001   -0.0001    0.0000   -0.0000    0.0000    0.0000
   56 NP4    6d0       -0.0000    0.0000    0.0000   -0.0000   -0.0006   -0.0006    0.0001   -0.0001    0.0003    0.0002
   57 NP4    3d1+      -0.0000    0.0000    0.0000    0.0000   -0.0000   -0.0000    0.0000    0.0000    0.0000    0.0000
   58 NP4    4d1+      -0.0454    0.0523    0.5938    0.8012    0.0000   -0.0000    0.0000   -0.0000    0.0000    0.0000
   59 NP4    5d1+       0.0000   -0.0000   -0.0001   -0.0002   -0.0000   -0.0000   -0.0000    0.0000    0.0000    0.0000
   60 NP4    6d1+      -0.0000   -0.0000    0.0000    0.0001    0.0000   -0.0001    0.0000    0.0000    0.0000    0.0000
   61 NP4    3d2+       0.0000   -0.0000    0.0000    0.0000    0.0000    0.0000    0.0000    0.0000   -0.0000    0.0000
   62 NP4    4d2+       0.9540   -0.1049    0.0670    0.0201   -0.0000   -0.0000    0.0000    0.0000   -0.0000    0.0000
   63 NP4    5d2+      -0.0003    0.0000   -0.0000   -0.0000    0.0000    0.0000    0.0000    0.0000   -0.0000    0.0000
   64 NP4    6d2+       0.0000   -0.0000    0.0000    0.0000    0.0000    0.0000    0.0000    0.0001   -0.0002    0.0001
   65 NP4    4f3-      -0.0001    0.0001   -0.0000   -0.0000    0.0000    0.0000    0.0000    0.0000    0.0000   -0.0000
   66 NP4    5f3-      -0.0000   -0.0000   -0.0000    0.0000   -0.0000   -0.0000   -0.0000    0.0000    0.0001    0.0000
   67 NP4    4f2-      -0.0000   -0.0000    0.0001   -0.0003    0.0000   -0.0000   -0.0000    0.0000    0.0000   -0.0000
   68 NP4    5f2-      -0.0000    0.0000   -0.0000    0.0000    0.0000   -0.0000   -0.0000   -0.0000   -0.0000   -0.0000
   69 NP4    4f1-      -0.0001   -0.0002   -0.0000    0.0000   -0.0000   -0.0000   -0.0000    0.0000    0.0000   -0.0000
   70 NP4    5f1-      -0.0000    0.0000    0.0000   -0.0000    0.0000   -0.0000    0.0000   -0.0000   -0.0000   -0.0000
   71 NP4    4f0        0.0000   -0.0000   -0.0000   -0.0003   -0.0000    0.0000   -0.0000    0.0000    0.0000    0.0000
   72 NP4    5f0       -0.0000   -0.0000   -0.0000    0.0000   -0.0001    0.0001    0.0000   -0.0000   -0.0000   -0.0000
   73 NP4    4f1+      -0.0001    0.0003   -0.0000   -0.0000    0.0000    0.0000    0.0000   -0.0000    0.0000   -0.0000
   74 NP4    5f1+      -0.0000   -0.0000    0.0000    0.0000   -0.0000    0.0000   -0.0000    0.0000    0.0000    0.0000
   75 NP4    4f2+      -0.0000    0.0000    0.0003    0.0001   -0.0000    0.0000    0.0000   -0.0000    0.0000   -0.0000
   76 NP4    5f2+      -0.0000    0.0000   -0.0000   -0.0000   -0.0000    0.0000   -0.0000   -0.0000    0.0000   -0.0000
   77 NP4    4f3+       0.0003    0.0000    0.0000   -0.0000    0.0000    0.0000   -0.0000   -0.0000   -0.0000    0.0000
   78 NP4    5f3+       0.0000   -0.0000   -0.0000    0.0000   -0.0000   -0.0000   -0.0000   -0.0000    0.0000    0.0001
   79 O5     1s        -0.0000    0.0000    0.0000    0.0000   -0.0000   -0.0000   -0.0000    0.0000    0.9398   -0.3420
   80 O5     2s         0.0000    0.0000    0.0000   -0.0000   -0.0000   -0.0000   -0.0000    0.0000    0.0012   -0.0008
   81 O5     2px       -0.0000   -0.0000   -0.0000    0.0000    0.0000    0.0000   -0.0000    0.0000   -0.0012    0.0007
   82 O5     2py        0.0000    0.0000    0.0000   -0.0000   -0.0000   -0.0000   -0.0000   -0.0000   -0.0004    0.0005
   83 O5     2pz        0.0000    0.0000   -0.0000   -0.0000    0.0000   -0.0000   -0.0000   -0.0000    0.0000   -0.0000
   84 O6     1s         0.0000    0.0000    0.0000   -0.0000   -0.0000   -0.0000    0.9996   -0.0303    0.0000    0.0000
   85 O6     2s         0.0000   -0.0000    0.0000   -0.0000    0.0000    0.0000    0.0018   -0.0001   -0.0000    0.0000
   86 O6     2px        0.0000   -0.0000    0.0000    0.0000    0.0000    0.0000   -0.0017    0.0000   -0.0000    0.0000
   87 O6     2py        0.0000    0.0000    0.0000   -0.0000    0.0000    0.0000   -0.0009    0.0001   -0.0000   -0.0000
   88 O6     2pz        0.0000    0.0000   -0.0000    0.0000    0.0000   -0.0000   -0.0002    0.0000   -0.0000    0.0000
   89 O7     1s         0.0000    0.0000    0.0000   -0.0000    1.0001   -0.0007    0.0000   -0.0000    0.0000    0.0000
   90 O7     2s         0.0000    0.0000    0.0000   -0.0000    0.0013    0.0001   -0.0000    0.0000   -0.0001   -0.0000
   91 O7     2px        0.0000    0.0000    0.0000    0.0000   -0.0000    0.0000   -0.0000    0.0000    0.0000    0.0000
   92 O7     2py       -0.0000   -0.0000    0.0000   -0.0000    0.0000   -0.0000    0.0000   -0.0000   -0.0000   -0.0000
   93 O7     2pz        0.0000   -0.0000   -0.0000    0.0000   -0.0015   -0.0001    0.0000   -0.0000    0.0001    0.0000
   94 O8     1s         0.0000    0.0000    0.0000    0.0000    0.0007    1.0001    0.0000   -0.0000    0.0000    0.0000
   95 O8     2s         0.0000    0.0000    0.0000   -0.0000    0.0001    0.0014    0.0000   -0.0000   -0.0001   -0.0000
   96 O8     2px        0.0000    0.0000   -0.0000   -0.0000    0.0000    0.0000   -0.0000    0.0000    0.0000    0.0000
   97 O8     2py        0.0000   -0.0000   -0.0000    0.0000   -0.0000   -0.0000    0.0000   -0.0000   -0.0000   -0.0000
   98 O8     2pz       -0.0000    0.0000    0.0000    0.0000    0.0000    0.0014   -0.0000    0.0000   -0.0001   -0.0000
   99 H9     1s        -0.0000   -0.0000   -0.0000    0.0000    0.0000    0.0000   -0.0000    0.0000   -0.0000   -0.0000
  100 H10    1s         0.0000    0.0000    0.0000   -0.0000    0.0000    0.0001    0.0000   -0.0000   -0.0000   -0.0000
  101 H11    1s         0.0000   -0.0000    0.0000    0.0000    0.0000    0.0000   -0.0000    0.0000   -0.0000   -0.0000
  102 O12    1s         0.0000    0.0000    0.0000    0.0000   -0.0000   -0.0000   -0.0000    0.0000    0.3419    0.9398
  103 O12    2s        -0.0000    0.0000    0.0000   -0.0000   -0.0000   -0.0000    0.0000    0.0000    0.0001    0.0014
  104 O12    2px        0.0000   -0.0000    0.0000    0.0000    0.0000    0.0000   -0.0000    0.0000   -0.0002    0.0002
  105 O12    2py       -0.0000    0.0000   -0.0000   -0.0000   -0.0000   -0.0000    0.0000   -0.0000    0.0002    0.0015
  106 O12    2pz       -0.0000    0.0000    0.0000   -0.0000    0.0000   -0.0000    0.0000    0.0000    0.0000    0.0000
 
 
      Orbital               31        32        33        34        35        36        37        38        39        40
      Energy          -15.9951  -15.9942  -15.9893  -15.9893  -15.9861  -15.9816  -15.9788  -13.2344  -11.2302   -9.1613
      Occ. No.          2.0000    2.0000    2.0000    2.0000    2.0000    2.0000    2.0000    2.0000    2.0000    2.0000
 
    1 C1     1s        -0.0000   -0.0000   -0.0000    0.0000   -0.0000    0.0000   -0.0000   -0.0000    1.0003   -0.0001
    2 C1     2s        -0.0000   -0.0000   -0.0000    0.0000   -0.0000    0.0000   -0.0000   -0.0000    0.0014   -0.0000
    3 C1     2px       -0.0000   -0.0000   -0.0000   -0.0000   -0.0000   -0.0000   -0.0000   -0.0000   -0.0001   -0.0001
    4 C1     2py        0.0000   -0.0000    0.0000   -0.0000    0.0000   -0.0000    0.0000    0.0000    0.0001    0.0001
    5 C1     2pz       -0.0000    0.0000   -0.0000    0.0000    0.0000   -0.0000    0.0000   -0.0000    0.0002    0.0001
    6 S2     1s        -0.0000   -0.0000   -0.0000   -0.0000   -0.0000    0.0000   -0.0000   -0.0000   -0.0000    0.0000
    7 S2     2s        -0.0000   -0.0000   -0.0000   -0.0000   -0.0000    0.0000   -0.0000   -0.0000   -0.0002    0.9998
    8 S2     3s         0.0000    0.0000    0.0000   -0.0000   -0.0000    0.0000   -0.0000   -0.0000   -0.0007    0.0059
    9 S2     2px        0.0000   -0.0000    0.0000   -0.0000    0.0000    0.0000   -0.0000   -0.0000    0.0000    0.0118
   10 S2     3px        0.0000    0.0000    0.0000   -0.0000    0.0000    0.0000    0.0000   -0.0000    0.0003    0.0007
   11 S2     2py       -0.0000   -0.0000   -0.0000   -0.0000   -0.0000    0.0000    0.0000    0.0000   -0.0000   -0.0089
   12 S2     3py       -0.0000    0.0000   -0.0000   -0.0000   -0.0000    0.0000   -0.0000    0.0000   -0.0002   -0.0005
   13 S2     2pz        0.0000    0.0000    0.0000   -0.0000   -0.0000   -0.0000    0.0000   -0.0000    0.0001   -0.0095
   14 S2     3pz       -0.0000   -0.0000    0.0000   -0.0000   -0.0000   -0.0000    0.0000   -0.0000    0.0005   -0.0005
   15 O3     1s        -0.0000    0.0000   -0.0000   -0.0000   -0.0000    0.0000    0.0000    0.0000    0.0000   -0.0001
   16 O3     2s        -0.0000    0.0000   -0.0000   -0.0000    0.0000    0.0000    0.0000    0.0001   -0.0000    0.0001
   17 O3     2px       -0.0000    0.0000   -0.0000   -0.0000    0.0000    0.0000    0.0001    0.0003    0.0001   -0.0001
   18 O3     2py        0.0000   -0.0000    0.0000    0.0000    0.0000    0.0000   -0.0000   -0.0000   -0.0001    0.0003
   19 O3     2pz       -0.0000    0.0000   -0.0000    0.0000    0.0000   -0.0000   -0.0000   -0.0000    0.0001    0.0001
   20 NP4    1s        -0.0000   -0.0000   -0.0000    0.0000    0.0000   -0.0000    0.0000   -0.0000   -0.0000   -0.0000
   21 NP4    2s        -0.0000   -0.0000    0.0000    0.0000   -0.0000   -0.0000    0.0000   -0.0000   -0.0000   -0.0000
   22 NP4    3s        -0.0000   -0.0000    0.0000    0.0000   -0.0000   -0.0000    0.0000   -0.0000   -0.0000   -0.0000
   23 NP4    4s        -0.0000   -0.0000    0.0000   -0.0000   -0.0000    0.0000    0.0000    0.0001   -0.0000    0.0000
   24 NP4    5s         0.0000    0.0000    0.0000   -0.0000    0.0000   -0.0000   -0.0001    1.0000   -0.0000    0.0000
   25 NP4    6s         0.0000    0.0000    0.0000   -0.0000   -0.0000    0.0000   -0.0001   -0.0019   -0.0001    0.0000
   26 NP4    7s        -0.0000    0.0000    0.0000   -0.0000    0.0000    0.0000    0.0000   -0.0002   -0.0003    0.0000
   27 NP4    2px       -0.0000   -0.0000    0.0000    0.0000   -0.0000    0.0000    0.0000   -0.0000    0.0000   -0.0000
   28 NP4    3px       -0.0000   -0.0000    0.0000    0.0000   -0.0000    0.0000    0.0000    0.0000    0.0000   -0.0000
   29 NP4    4px       -0.0000   -0.0000   -0.0000    0.0000   -0.0001    0.0001    0.0001   -0.0000    0.0000   -0.0000
   30 NP4    5px        0.0000    0.0000   -0.0000   -0.0001    0.0001   -0.0001    0.0000    0.0008    0.0000   -0.0000
   31 NP4    6px       -0.0000   -0.0000   -0.0000    0.0000    0.0000    0.0001    0.0008    0.0010    0.0001   -0.0000
   32 NP4    7px        0.0000    0.0000   -0.0000   -0.0000    0.0000   -0.0000   -0.0001   -0.0001    0.0003   -0.0000
   33 NP4    2py        0.0000   -0.0000    0.0000    0.0000    0.0000    0.0000   -0.0000    0.0000   -0.0000    0.0000
   34 NP4    3py        0.0000   -0.0000    0.0000    0.0000    0.0000    0.0000   -0.0000   -0.0000   -0.0000    0.0000
   35 NP4    4py        0.0000   -0.0000    0.0000    0.0001    0.0000    0.0001   -0.0001    0.0000   -0.0000    0.0000
   36 NP4    5py       -0.0000    0.0000   -0.0000   -0.0002   -0.0001   -0.0002   -0.0000   -0.0006   -0.0000    0.0000
   37 NP4    6py        0.0000   -0.0000    0.0000    0.0000   -0.0000    0.0001   -0.0006   -0.0007   -0.0001    0.0000
   38 NP4    7py       -0.0000    0.0000   -0.0000   -0.0000   -0.0000   -0.0000    0.0001    0.0001   -0.0002    0.0000
   39 NP4    2pz       -0.0000   -0.0000    0.0000   -0.0000   -0.0000    0.0000    0.0000   -0.0000    0.0000    0.0000
   40 NP4    3pz       -0.0000   -0.0000    0.0000   -0.0000   -0.0000    0.0000    0.0000   -0.0000    0.0000    0.0000
   41 NP4    4pz       -0.0001   -0.0000    0.0000   -0.0000    0.0000    0.0000    0.0000   -0.0000    0.0000    0.0000
[...]
 ###############################################################################
 ###                                                                         ###
 ###                                                                         ###
 ###    RunFile label ipCff                                                  ###
 ###    was used       49 times                                              ###
 ###                                                                         ###
 ###                                                                         ###
 ###############################################################################
 ###############################################################################
 ###############################################################################
 ###############################################################################
 ###                                                                         ###
 ###                                                                         ###
 ###    RunFile label ipExp                                                  ###
 ###    was used       49 times                                              ###
 ###                                                                         ###
 ###                                                                         ###
 ###############################################################################
 ###############################################################################
 ###############################################################################
 ###############################################################################
 ###                                                                         ###
 ###                                                                         ###
 ###    RunFile label IndS                                                   ###
 ###    was used       49 times                                              ###
 ###                                                                         ###
 ###                                                                         ###
 ###############################################################################
 ###############################################################################
 ###############################################################################
 ###############################################################################
 ###                                                                         ###
 ###                                                                         ###
 ###    RunFile label ip_Occ                                                 ###
 ###    was used       49 times                                              ###
 ###                                                                         ###
 ###                                                                         ###
 ###############################################################################
 ###############################################################################
 ###############################################################################
 ###############################################################################
 ###                                                                         ###
 ###                                                                         ###
 ###    RunFile label ipAkl                                                  ###
 ###    was used       49 times                                              ###
 ###                                                                         ###
 ###                                                                         ###
 ###############################################################################
 ###############################################################################
 ###############################################################################
 ###############################################################################
 ###                                                                         ###
 ###                                                                         ###
 ###    RunFile label ipBk                                                   ###
 ###    was used       49 times                                              ###
 ###                                                                         ###
 ###                                                                         ###
 ###############################################################################
 ###############################################################################
 ###############################################################################
 ###############################################################################
 ###                                                                         ###
 ###                                                                         ###
 ###    RunFile label nOpt                                                   ###
 ###    was used       49 times                                              ###
 ###                                                                         ###
 ###                                                                         ###
 ###############################################################################
 ###############################################################################
 ###############################################################################
 ###############################################################################
 ###                                                                         ###
 ###                                                                         ###
 ###    RunFile label Prjct                                                  ###
 ###    was used       49 times                                              ###
 ###                                                                         ###
 ###                                                                         ###
 ###############################################################################
 ###############################################################################
 ###############################################################################
 ###############################################################################
 ###                                                                         ###
 ###                                                                         ###
 ###    RunFile label Transf                                                 ###
 ###    was used       49 times                                              ###
 ###                                                                         ###
 ###                                                                         ###
 ###############################################################################
 ###############################################################################
 ###############################################################################
 ###############################################################################
 ###                                                                         ###
 ###                                                                         ###
 ###    RunFile label iCoSet                                                 ###
 ###    was used       49 times                                              ###
 ###                                                                         ###
 ###                                                                         ###
 ###############################################################################
 ###############################################################################
 ###############################################################################
 ###############################################################################
 ###                                                                         ###
 ###                                                                         ###
 ###    RunFile label nBasis_Cntrct                                          ###
 ###    was used       49 times                                              ###
 ###                                                                         ###
 ###                                                                         ###
 ###############################################################################
 ###############################################################################
 ###############################################################################
 ###############################################################################
 ###                                                                         ###
 ###                                                                         ###
 ###    RunFile label ipCff_Cntrct                                           ###
 ###    was used       49 times                                              ###
 ###                                                                         ###
 ###                                                                         ###
 ###############################################################################
 ###############################################################################
 ###############################################################################
 ###############################################################################
 ###                                                                         ###
 ###                                                                         ###
 ###    RunFile label ipCff_Prim                                             ###
 ###    was used       49 times                                              ###
 ###                                                                         ###
 ###                                                                         ###
 ###############################################################################
 ###############################################################################
 ###############################################################################
 ###############################################################################
 ###                                                                         ###
 ###                                                                         ###
 ###    RunFile label ipFockOp                                               ###
 ###    was used       49 times                                              ###
 ###                                                                         ###
 ###                                                                         ###
 ###############################################################################
 ###############################################################################
 ###############################################################################
 ###############################################################################
 ###                                                                         ###
 ###                                                                         ###
 ###    RunFile label IrrCmp                                                 ###
 ###    was used       49 times                                              ###
 ###                                                                         ###
 ###                                                                         ###
 ###############################################################################
 ###############################################################################
 ###############################################################################
 ###############################################################################
 ###                                                                         ###
 ###                                                                         ###
 ###    RunFile label iAOtSO                                                 ###
 ###    was used       49 times                                              ###
 ###                                                                         ###
 ###                                                                         ###
 ###############################################################################
 ###############################################################################
 ###############################################################################
 ###############################################################################
 ###                                                                         ###
 ###                                                                         ###
 ###    RunFile label iSOInf                                                 ###
 ###    was used       49 times                                              ###
 ###                                                                         ###
 ###                                                                         ###
 ###############################################################################
 ###############################################################################
 ###############################################################################
 ###############################################################################
 ###                                                                         ###
 ###                                                                         ###
 ###    RunFile label FragShell                                              ###
 ###    was used       49 times                                              ###
 ###                                                                         ###
 ###                                                                         ###
 ###############################################################################
 ###############################################################################
 ###############################################################################
 ###############################################################################
 ###                                                                         ###
 ###                                                                         ###
 ###    RunFile label AuxShell                                               ###
 ###    was used       49 times                                              ###
 ###                                                                         ###
 ###                                                                         ###
 ###############################################################################
 ###############################################################################
--- Stop Module: rasscf at Fri Nov 16 15:52:46 2018 /rc=_RC_ALL_IS_WELL_ ---
*** files: NpO2_CH3SO2_O2-m1-doublet.casscf.MB.LprOrb NpO2_CH3SO2_O2-m1-doublet.casscf.MB.rasscf.molden NpO2_CH3SO2_O2-m1-doublet.casscf.MB.rasscf.molden.16
           NpO2_CH3SO2_O2-m1-doublet.casscf.MB.rasscf.molden.13 NpO2_CH3SO2_O2-m1-doublet.casscf.MB.rasscf.molden.14 NpO2_CH3SO2_O2-m1-doublet.casscf.MB.rasscf.molden.1
           NpO2_CH3SO2_O2-m1-doublet.casscf.MB.rasscf.molden.3 NpO2_CH3SO2_O2-m1-doublet.casscf.MB.rasscf.molden.9 NpO2_CH3SO2_O2-m1-doublet.casscf.MB.rasscf.molden.23
           NpO2_CH3SO2_O2-m1-doublet.casscf.MB.rasscf.molden.6 NpO2_CH3SO2_O2-m1-doublet.casscf.MB.rasscf.molden.8 NpO2_CH3SO2_O2-m1-doublet.casscf.MB.rasscf.molden.2
           NpO2_CH3SO2_O2-m1-doublet.casscf.MB.rasscf.molden.18 NpO2_CH3SO2_O2-m1-doublet.casscf.MB.rasscf.molden.22 NpO2_CH3SO2_O2-m1-doublet.casscf.MB.rasscf.molden.12
           NpO2_CH3SO2_O2-m1-doublet.casscf.MB.rasscf.molden.24 NpO2_CH3SO2_O2-m1-doublet.casscf.MB.rasscf.molden.5 NpO2_CH3SO2_O2-m1-doublet.casscf.MB.rasscf.molden.11
           NpO2_CH3SO2_O2-m1-doublet.casscf.MB.rasscf.molden.20 NpO2_CH3SO2_O2-m1-doublet.casscf.MB.rasscf.molden.4 NpO2_CH3SO2_O2-m1-doublet.casscf.MB.rasscf.molden.17
           NpO2_CH3SO2_O2-m1-doublet.casscf.MB.rasscf.molden.21 NpO2_CH3SO2_O2-m1-doublet.casscf.MB.rasscf.molden.19 NpO2_CH3SO2_O2-m1-doublet.casscf.MB.rasscf.molden.10
           NpO2_CH3SO2_O2-m1-doublet.casscf.MB.rasscf.molden.15 NpO2_CH3SO2_O2-m1-doublet.casscf.MB.rasscf.molden.7 NpO2_CH3SO2_O2-m1-doublet.casscf.MB.LoProp.molden
           NpO2_CH3SO2_O2-m1-doublet.casscf.MB.RasOrb.18 NpO2_CH3SO2_O2-m1-doublet.casscf.MB.RasOrb.22 NpO2_CH3SO2_O2-m1-doublet.casscf.MB.RasOrb.10
           NpO2_CH3SO2_O2-m1-doublet.casscf.MB.RasOrb.12 NpO2_CH3SO2_O2-m1-doublet.casscf.MB.RasOrb.11 NpO2_CH3SO2_O2-m1-doublet.casscf.MB.RasOrb.16
           NpO2_CH3SO2_O2-m1-doublet.casscf.MB.RasOrb.20 NpO2_CH3SO2_O2-m1-doublet.casscf.MB.RasOrb.24 NpO2_CH3SO2_O2-m1-doublet.casscf.MB.RasOrb.13
           NpO2_CH3SO2_O2-m1-doublet.casscf.MB.RasOrb.14 NpO2_CH3SO2_O2-m1-doublet.casscf.MB.RasOrb.5 NpO2_CH3SO2_O2-m1-doublet.casscf.MB.RasOrb.19
           NpO2_CH3SO2_O2-m1-doublet.casscf.MB.RasOrb.1 NpO2_CH3SO2_O2-m1-doublet.casscf.MB.RasOrb.15 NpO2_CH3SO2_O2-m1-doublet.casscf.MB.RasOrb.8
           NpO2_CH3SO2_O2-m1-doublet.casscf.MB.RasOrb.21 NpO2_CH3SO2_O2-m1-doublet.casscf.MB.RasOrb.23 NpO2_CH3SO2_O2-m1-doublet.casscf.MB.RasOrb.6
           NpO2_CH3SO2_O2-m1-doublet.casscf.MB.RasOrb.17 NpO2_CH3SO2_O2-m1-doublet.casscf.MB.RasOrb.3 NpO2_CH3SO2_O2-m1-doublet.casscf.MB.RasOrb.4
           NpO2_CH3SO2_O2-m1-doublet.casscf.MB.RasOrb.2 NpO2_CH3SO2_O2-m1-doublet.casscf.MB.RasOrb NpO2_CH3SO2_O2-m1-doublet.casscf.MB.RasOrb.9
           NpO2_CH3SO2_O2-m1-doublet.casscf.MB.RasOrb.7 NpO2_CH3SO2_O2-m1-doublet.casscf.MB.rasscf.h5 NpO2_CH3SO2_O2-m1-doublet.casscf.MB.SpdOrb.17
           NpO2_CH3SO2_O2-m1-doublet.casscf.MB.SpdOrb.4 NpO2_CH3SO2_O2-m1-doublet.casscf.MB.SpdOrb.15 NpO2_CH3SO2_O2-m1-doublet.casscf.MB.SpdOrb.9
           NpO2_CH3SO2_O2-m1-doublet.casscf.MB.SpdOrb.18 NpO2_CH3SO2_O2-m1-doublet.casscf.MB.SpdOrb.2 NpO2_CH3SO2_O2-m1-doublet.casscf.MB.SpdOrb.19
           NpO2_CH3SO2_O2-m1-doublet.casscf.MB.SpdOrb.13 NpO2_CH3SO2_O2-m1-doublet.casscf.MB.SpdOrb.24 NpO2_CH3SO2_O2-m1-doublet.casscf.MB.SpdOrb.23
           NpO2_CH3SO2_O2-m1-doublet.casscf.MB.SpdOrb.22 NpO2_CH3SO2_O2-m1-doublet.casscf.MB.SpdOrb.10 NpO2_CH3SO2_O2-m1-doublet.casscf.MB.SpdOrb.21
           NpO2_CH3SO2_O2-m1-doublet.casscf.MB.SpdOrb.20 NpO2_CH3SO2_O2-m1-doublet.casscf.MB.SpdOrb.12 NpO2_CH3SO2_O2-m1-doublet.casscf.MB.SpdOrb.1
           NpO2_CH3SO2_O2-m1-doublet.casscf.MB.SpdOrb.8 NpO2_CH3SO2_O2-m1-doublet.casscf.MB.SpdOrb.16 NpO2_CH3SO2_O2-m1-doublet.casscf.MB.SpdOrb.6
           NpO2_CH3SO2_O2-m1-doublet.casscf.MB.SpdOrb.7 NpO2_CH3SO2_O2-m1-doublet.casscf.MB.SpdOrb.11 NpO2_CH3SO2_O2-m1-doublet.casscf.MB.SpdOrb.5
           NpO2_CH3SO2_O2-m1-doublet.casscf.MB.SpdOrb.14 NpO2_CH3SO2_O2-m1-doublet.casscf.MB.SpdOrb.3 xmldump
    saved to directory /home/vallet/John-methylsulfonyl/NpO2_CH3SO2_O2-m1/doublet-geom/optg-freq-pbe0-peroxo/SO-XMS
--- Module rasscf spent 41 seconds ---

>>> COPY NpO2_CH3SO2_O2-m1-doublet.casscf.MB.RasOrb /home/vallet/John-methylsulfonyl/NpO2_CH3SO2_O2-m1/doublet-geom/optg-freq-pbe0-peroxo/SO-XMS/NpO2_CH3SO2_O2-m1-doublet.casscf.MB.RasOrb_doublets

>>> COPY NpO2_CH3SO2_O2-m1-doublet.casscf.MB.rasscf.molden /home/vallet/John-methylsulfonyl/NpO2_CH3SO2_O2-m1/doublet-geom/optg-freq-pbe0-peroxo/SO-XMS/NpO2_CH3SO2_O2-m1-doublet.casscf.MB.rasscf_doublets.molden

    Timing: Wall=269.94 User=1820.27 System=57.51
