
   OpenMP run-time library returned nthreads =  4
 operating system is UNIX !

 force (u-0-12.local) : TURBOMOLE V7.3 ( 22142 ) 4 Jul 2018 at 18:12:42
 Copyright (C) 2018 TURBOMOLE GmbH, Karlsruhe


    2019-01-29 13:52:31.931 



                             T U R B O M O L E   

                          a o f o r c e - program

                        using direct algorithms for

                       SCF level calculations of
                         * harmonic force constants
                         * hyperpolarizabilities
                         * IR and RAMAN intensities
                         * VCD intensities

                       DFT level calculations of
                         * harmonic force constants
                         * IR intensities
                                                   
       Stephan Boecker, Peter Deglmann, Filipp Furche and Marco Haeser
                          Quantum Chemistry Group
                          Universitaet  Karlsruhe
                                   Germany

 
 

          OpenMP Shared-Memory Parallelization:  4 CPUs.

            By: Erik P. Almaraz and Filipp Furche
            Copyright 2009-2011 by UCI and TURBOMOLE GmbH.

 
 
     References :
 
       RI-J implementation:
         Peter Deglmann, Klaus May, Filipp Furche, Reinhart Ahlrichs
                 Chem. Phys. Lett. 384:103 (2004)
 
       Efficiency, technical details:
         Peter Deglmann, Filipp Furche, Reinhart Ahlrichs
                 Chem. Phys. Lett. 362:511 (2002)
 
       Search of lowest eigenvalues by iterative diagonalization:
         Peter Deglmann, Filipp Furche
                 J. Chem. Phys. 117:9535 (2002)
 
       Vibrational circular dichroism implementation:
        Kevin Reiter, Michael Kuehn, Florian Weigend
                 J. Chem. Phys. 146:054102 (2017)  
 
 


              +--------------------------------------------------+
              | Atomic coordinate, charge and isotop information |
              +--------------------------------------------------+

                    atomic coordinates            atom    charge  isotop
          0.19614019    1.48950265    0.00000000    c      6.000     0
          0.14623115    0.22838235   -2.29654397    c      6.000     0
         -0.00678853   -2.38576707   -2.27837835    c      6.000     0
         -0.07951075   -3.68548251    0.00000000    c      6.000     0
         -0.00678853   -2.38576707    2.27837835    c      6.000     0
          0.14623115    0.22838235    2.29654397    c      6.000     0
          0.18667561    1.28698803   -4.04548720    h      1.000     0
         -0.07584392   -3.40893484   -4.04888713    h      1.000     0
         -0.19705616   -5.72871500    0.00000000    h      1.000     0
         -0.07584392   -3.40893484    4.04888713    h      1.000     0
          0.18667561    1.28698803    4.04548720    h      1.000     0
          0.49349947    4.85628333    0.00000000    s     16.000     0
         -0.45681069    5.81353730   -2.41612893    o      8.000     0
         -0.45681069    5.81353730    2.41612893    o      8.000     0
 
       center of nuclear mass  :    0.04237148    1.79560259    0.00000000
       center of nuclear charge:    0.04088652    1.66684966    0.00000000

              +--------------------------------------------------+
              |               basis set information              |
              +--------------------------------------------------+

              we will work with the 1s 3p 5d 7f 9g ... basis set
              ...i.e. with spherical basis functions...

   type   atoms  prim   cont   basis
   ---------------------------------------------------------------------------
    c        6     66     46   aug-cc-pVTZ   [5s4p3d2f|19s6p3d2f]
    h        5     25     23   aug-cc-pVTZ   [4s3p2d|6s3p2d]
    s        1    122     50   aug-cc-pVTZ   [6s5p3d2f|42s17p3d2f]
    o        2     66     46   aug-cc-pVTZ   [5s4p3d2f|19s6p3d2f]
   ---------------------------------------------------------------------------
   total:   14    775    533
   ---------------------------------------------------------------------------

   total number of primitive shells          :  135
   total number of contracted shells         :  173
   total number of cartesian basis functions :  624
   total number of SCF-basis functions       :  533

 
             FOUND RI-J FLAG !
 

 NOTE: THIS IS A PRELIMINARY IMPLEMENTATION. THE RI APPROXIMATION IS
       PRESENTLY USED FOR CPKS CONTRIBUTIONS TO THE HESSIAN ONLY! SEE
       MANUAL FOR FURTHER DETAILS.

  
 AUXILIARY BASIS SET information:

              we will work with the 1s 3p 5d 7f 9g ... basis set
              ...i.e. with spherical basis functions...

   type   atoms  prim   cont   basis
   ---------------------------------------------------------------------------
    c        6     70     49   aug-cc-pVTZ   [6s4p3d1f1g|12s5p4d2f1g]
    h        5     16     11   aug-cc-pVTZ   [3s1p1d|5s2p1d]
    s        1     77     51   aug-cc-pVTZ   [8s4p3d1f1g|14s5p5d2f1g]
    o        2     70     49   aug-cc-pVTZ   [6s4p3d1f1g|12s5p4d2f1g]
   ---------------------------------------------------------------------------
   total:   14    717    498
   ---------------------------------------------------------------------------

   total number of primitive shells          :   83
   total number of contracted shells         :  162
   total number of cartesian basis functions :  611
   total number of SCF-basis functions       :  498


 symmetry group of the molecule :   cs

 the group has the following generators :
   c1(z)
   mirror plane sigma(xy)

    2 symmetry operations found

 there are 2 real representations :   a'   a"  

 maximum number of shells which are related by symmetry :  2


 determining totally symmetric integral contributions 
    - equivalent to irreducible tensor elements - 
 which can be formed within each triple of representations :

             representation triple      contributions

              a'    a'    a'              1
              a'    a"    a"              1
              a"    a'    a"              1
              a"    a"    a'              1
       UHF mode switched on !

    mo occupation :
   irrep   mo's   occupied
    a'     293       23
    a"     240       14
 
 number of basis functions   :                    533
 number of occupied orbitals :                     37
 
 ALPHA-Occupation:                    37
 BETA-Occupation :                    36
  MOs are in ASCII format !


 reading orbital data $uhfmo_alpha  from file alpha
 orbital characterization : scfconv=6

 reading orbital data $uhfmo_beta  from file beta
 orbital characterization : scfconv=6
 time elapsed for calculating density matrices :   0.052 sec

 number of non-frozen orbitals          :   533
 number of non-frozen occupied orbitals :    37

 number of non-frozen orbitals          :   533
 number of non-frozen occupied orbitals :    36
 Blocking parameters 
 shells:
    index      start shell   last shell  start bf    last bf    #bf 
       1             1         173             1        624    624
          size of I/O Block in Byte:              130830336
  
           ----------------------
               RI - INFORMATION
           ----------------------

 biggest AO integral is expected to be     9.679779311

 Threshold for integral neglect (rithr2):   0.20E-10
 Threshold for integral neglect (rithr1):   0.20E-10

 Contributions to RI integral batches: 
  neglected integral batches:                  7181
  direct contribution:                            0
  memory contribution:                  7870
 Core memory available (ricore):               500 MiB
 Core memory needed for (P|Q) and Cholesky:      1 MiB
 Core memory used for integrals:               479 MiB
 
 ****************************************
 Memory allocated for RIDFT: 480 MiB
 ****************************************
 
  
           ------------------
           density functional
           ------------------
 PBE0 hybrid functional
 exchange:    3/4 (LDA+PBE) + 1/4 HF
 correlation: LDA (PW) + PBE

 iterations will be done with small grid
  
 spherical integration : Lebedev's spherical grid
 spherical gridsize    :                     4
    i.e. gridpoints    :                   434
 value for diffuse not defined
 radial integration    : Chebyshev 2nd kind (scaling 3)
 radial gridsize       :                     6
 integration cells     :                     9
 partition function    : becke
 partition sharpness   :                     3
  
 
 Derivatives of quadrature weights will be included
 
          Overall gridpoints after grid construction =         74282
 Ordering of quadrature gridpoints disabled.
 
 
 
 
 OCCUPIED-OCCUPIED TENSOR SPACES :

          IRREP   tensor space dimension   number of roots

           a'             1405                  20
           a"             1260                  16
 
 OCCUPIED-VIRTUAL TENSOR SPACES :

          IRREP   tensor space dimension   number of roots

           a'            18500                  20
           a"            17744                  16
 
 
 
 
 CONSTRUCTING integral bounds

 setting up bound for integral derivative estimation

 increment for numerical differentiation : 0.00050000
 
 machine precision:   2.220446049250313E-016

 integral neglect threshold       :  0.10E-09
 integral storage threshold THIZE :  0.10E-04
 integral storage threshold THIME :         5

 
 
 
 PREPARING NUMERICAL INTEGRATION
 
 Remaining core memory for DFT =                  1623 MB
 
 Memory needed per atom    =                  9140 KiB
 
     i. e.                    14 atoms per loop

 Calculating ground state density on molecular grid

 Integral of ground state total density: Na =   72.99998621137701    

 Integral of ground state spin density:  Nb =   1.000000743059898    


 
 
 CONSTRUCTING first deriv. of <mu|x,y,z|nu> -> Dip. deriv.
  dipole integral derivatives will be neglected if
  expon. factor <0.801282E-11
      ...terminated. cpu:       0.29       wall:       0.08
 
 
 
 
 CONSTRUCTING first deriv. of  <mu|nu>
                               <mu|h|nu>    -> RHS
              second deriv. of <mu|nu>      -> Hessian
                               <mu|h|nu>    -> Hessian
                               nucl. rep.   -> Hessian
     integrals are neglected if expon. factor <  8.012820512820512E-013
      ...terminated. cpu:       3.00       wall:       2.16
 
 
 
 
 CONSTRUCTING second deriv. of 2e energy    -> Hessian
   treating Coulomb (and exchange) contribution
     integrals will be neglected if total contribution <  8.012820512820511E-009
      ...terminated. cpu:    2398.91       wall:     641.38
   treating exchange-correlation contribution
      ...terminated. cpu:     532.58       wall:     178.42
 
 
 
 
 CONSTRUCTING S(i,j)xi
      ...terminated. cpu:       0.09       wall:       0.09
 
 
 
 
 CONSTRUCTING <i|x,y,z|j>*S(i,j)xi          -> Dip. deriv.
      ...terminated. cpu:       0.24       wall:       0.10
 
 
 
 
 CONSTRUCTING epsilon(i)*S(i,j)xi*S(i,j)chi -> Hessian
      ...terminated. cpu:       0.00       wall:       0.00
 
 
 
 
 CONSTRUCTING G(a,i)[S(k,l)xi]              -> RHS
              G(i,j)[S(k,l)xi]*S(i,j)chi    -> Hessian
 
         Maximum core memory set to                   2000 MB
         This corresponds to                   333 vectors in CAO basis
      ...terminated. cpu:    4580.30       wall:    1221.69
 
 
 
 
 CONSTRUCTING G(mu,nu)[D(kap,lam)]xi
 
          Maximum core memory set to                   2000 MB
          Atoms treated simultaneously :                    14
 max of dfo   56.3190951150893     
      ...terminated. cpu:    2430.27       wall:     613.85
 
 
 
 
 CONSTRUCTING F(a,i)xi                      -> RHS
              F(i,j)xi*S(i,j)chi            -> Hessian
 
        Maximum core memory set to                  2000 MB
        This corresponds to                   641 vectors in CAO basis
      ...terminated. cpu:       4.19       wall:       1.90
 
 
 
 
 CONSTRUCTING epsilon(i)*S(a,i)xi           -> RHS
      ...terminated. cpu:       1.15       wall:       0.66
 
 
 
 
 SOLVING CPHF equations
 
 Residuum convergence criterium   :  1.000000000000000E-005
 
 Maximum number of Davidson iterations set to                    25
  Switching to small grid
        preparing numerical integration ....
          Overall gridpoints after grid construction =         21619

 Calculating ground state density on molecular grid

 Integral of ground state total density: Na =   73.00019786988241    

 Integral of ground state spin density:  Nb =  0.9999878556614089    




                       Nonorthonormal Krylov Space Iteration


 total number of roots to be determined: 36


 maximum core memory set to  2000 MB,
 corresponding to      333 vectors in CAO basis


 maximum number of simultaneously treated vectors (including degeneracy):       36


 Iteration IRREP Converged      Max. Euclidean
                 roots          residual norm

    1       a'       0        2.212401481884217D-01
            a"       0        2.252623464511967D-01
 
    2       a'       0        2.412174116675519D-02
            a"       0        2.236969138942371D-02
 
    3       a'       0        4.743677415862318D-03
            a"       0        6.742698002951919D-03
 
    4       a'       0        1.333850641272773D-03
            a"       0        1.027253820283266D-03
 
    5       a'       0        2.558274698530294D-04
            a"       2        1.587562064351039D-04
 
    6       a'      12        2.942951783378072D-05
            a"      14        2.263749134111450D-05
 
    7       a'      20        9.541049464993469D-06
            a"      16        8.832782124512338D-06
 

 converged!

  Switching to fine grid
        preparing numerical integration ....
          Overall gridpoints after grid construction =         74282

 Calculating ground state density on molecular grid

 Integral of ground state total density: Na =   72.99998621137706    

 Integral of ground state spin density:  Nb =   1.000000743059899    



 Iteration IRREP Converged      Max. Euclidean
                 roots          residual norm

    8       a'       0        1.330295552641072D-04
            a"       1        1.331088820221916D-04
 

 NOTE: Residual norms are larger than 1.00D-05 due to mgrid option!

      ...terminated. cpu:   19518.85       wall:    4889.65
 
 
 
 
 CONSTRUCTING <a|x,y,z|i>*U(a,i)xi          -> Dip. deriv.
      ...terminated. cpu:       0.22       wall:       0.06
 
 
 
 
 CONSTRUCTING RHS(a,i)xi*U(a,i)chi          -> Hessian
      ...terminated. cpu:       0.05       wall:       0.01
 
 
 
 

            -----------------------
            permanent dipole moment
            -----------------------

                                   x                y                z
    electronic part       :   -2.5813135462  -123.5435385924     0.0000000000
     nuclear   part       :    2.9847159124   121.6800255123     0.0000000000
     total                :    0.4034023661    -1.8635130800     0.0000000000

 with reference to the point :   0.0000000        0.0000000        0.0000000
 (given in atomic units)
    | dipole |       :    4.8463243525  debye

   ***  dipole moment & cartesian dipole gradients written onto
        $dipole, $dipgrad,  file=<dipgrad>  ***

             -----------------------------------
             rotational and vibrational analysis
             -----------------------------------


            ==============================================================
            ATOMIC WEIGHTS (average over the natural occurance of isotops)
            ==============================================================
            ('*' denotes special isotop !)
              1     c                12.01115
              2     c                12.01115
              3     c                12.01115
              4     c                12.01115
              5     c                12.01115
              6     c                12.01115
              7     h                 1.00797
              8     h                 1.00797
              9     h                 1.00797
             10     h                 1.00797
             11     h                 1.00797
             12     s                32.06400
             13     o                15.99940
             14     o                15.99940

          -------------------------------------------------
          CARTESIAN FORCE CONSTANT MATRIX (hartree/bohr**2)
         (translational & rotational space projected out)
          -------------------------------------------------

   ATOM              1 c                           2 c 
                  dx        dy        dz        dx        dy        dz
   1 c     dx  0.1216266
           dy  0.0189437 0.4771680
           dz  0.0000000 0.0000000 0.6993735
   2 c     dx -0.0596295-0.0048113-0.0024653 0.1368082
           dy -0.0052852-0.1480969-0.0633628 0.0314935 0.6918390
           dz -0.0036205-0.1099420-0.2943654-0.0008324-0.0429859 0.7249105
   3 c     dx  0.0069994-0.0027193-0.0038292-0.0636036-0.0170632 0.0020683
           dy -0.0019928-0.0335602-0.0780313-0.0183601-0.3474920 0.0361282
           dz -0.0024771-0.0254065 0.0305613-0.0015905-0.0338823-0.1262153
   4 c     dx -0.0057380 0.0001381 0.0000000 0.0055482-0.0017677 0.0022148
           dy  0.0001036-0.0006006 0.0000000-0.0016356-0.0276252 0.0302075
           dz  0.0000000 0.0000000-0.0683400 0.0033388 0.0779590 0.0357001
   5 c     dx  0.0069994-0.0027193 0.0038292-0.0044315-0.0029167-0.0021146
           dy -0.0019928-0.0335602 0.0780313-0.0021559-0.0512780-0.0315001
           dz  0.0024771 0.0254065 0.0305613-0.0014514-0.0289774-0.0169178
   6 c     dx -0.0596295-0.0048113 0.0024653 0.0065790 0.0027926 0.0022985
           dy -0.0052852-0.1480969 0.0633628 0.0027926 0.0616735 0.0216843
           dz  0.0036205 0.1099420-0.2943654-0.0022985-0.0216843-0.0563674
   7 h     dx  0.0032106 0.0005469-0.0003746-0.0390127-0.0042415 0.0036454
           dy  0.0004534 0.0117915-0.0130703-0.0044903-0.1328665 0.1273398
           dz  0.0004455 0.0136361-0.0190098 0.0053113 0.1258666-0.2698756
   8 h     dx  0.0071308-0.0005368-0.0001931 0.0041357-0.0008084-0.0019075
           dy -0.0009404-0.0052063 0.0005974-0.0011402-0.0116139-0.0281677
           dz  0.0000256 0.0002588 0.0017592 0.0001704 0.0025015 0.0040177
   9 h     dx -0.0004558 0.0002164 0.0000000 0.0069878-0.0004548 0.0000583
           dy  0.0000535 0.0009533 0.0000000-0.0003783 0.0003529 0.0030831
           dz  0.0000000 0.0000000-0.0017373 0.0001695 0.0029831-0.0045485
  10 h     dx  0.0071308-0.0005368 0.0001931-0.0010089-0.0000722-0.0002553
           dy -0.0009404-0.0052063-0.0005974 0.0000144-0.0009201-0.0009039
           dz -0.0000256-0.0002588 0.0017592-0.0000407-0.0010060 0.0001237
  11 h     dx  0.0032106 0.0005469 0.0003746 0.0061120-0.0001264 0.0002848
           dy  0.0004534 0.0117915 0.0130703-0.0003699-0.0015160 0.0037044
           dz -0.0004455-0.0136361-0.0190098 0.0002981 0.0038586-0.0030218
  12 s     dx -0.0490924 0.0120401 0.0000000-0.0007521-0.0052657-0.0012545
           dy -0.0342758-0.1135775 0.0000000-0.0018269-0.0278942-0.0141071
           dz  0.0000000 0.0000000-0.0519708-0.0020953-0.0158493 0.0082725
  13 o     dx  0.0091185-0.0081485 0.0006171 0.0010005 0.0009129-0.0006874
           dy  0.0153523-0.0068997 0.0260797-0.0000798 0.0003203 0.0005738
           dz -0.0026561 0.0057401-0.0076079 0.0003710-0.0017058-0.0036514
  14 o     dx  0.0091185-0.0081485-0.0006171 0.0012670 0.0028029 0.0001021
           dy  0.0153523-0.0068997-0.0260797 0.0009478-0.0048829 0.0048855
           dz  0.0026561-0.0057401-0.0076079 0.0011148-0.0037150 0.0019386

   ATOM              3 c                           4 c 
                  dx        dy        dz        dx        dy        dz
   3 c     dx  0.1367125
           dy  0.0326993 0.6925390
           dz  0.0040916 0.0337225 0.7292260
   4 c     dx -0.0637866-0.0069241 0.0069906 0.1417926
           dy -0.0065090-0.1814370 0.1252199 0.0347667 0.7469355
           dz  0.0024453 0.0574890-0.2920522 0.0000000 0.0000000 0.6769297
   5 c     dx  0.0062814 0.0039065-0.0013092-0.0637866-0.0065090-0.0024453
           dy  0.0039065 0.0677984-0.0227196-0.0069241-0.1814370-0.0574890
           dz  0.0013092 0.0227196-0.0575687-0.0069906-0.1252199-0.2920522
   6 c     dx -0.0044315-0.0021559 0.0014514 0.0055482-0.0016356-0.0033388
           dy -0.0029167-0.0512780 0.0289774-0.0017677-0.0276252-0.0779590
           dz  0.0021146 0.0315001-0.0169178-0.0022148-0.0302075 0.0357001
   7 h     dx  0.0047461-0.0005765 0.0019645 0.0074706-0.0009821 0.0000830
           dy -0.0005695-0.0093423 0.0268292-0.0006807-0.0053759-0.0009468
           dz -0.0003148-0.0025449 0.0056399-0.0001839-0.0009491 0.0014699
   8 h     dx -0.0390851-0.0057435-0.0085579 0.0041280 0.0003501 0.0011746
           dy -0.0057840-0.1290994-0.1228386 0.0004954 0.0118595 0.0151752
           dz -0.0084126-0.1227644-0.2711068-0.0010401-0.0158805-0.0179687
   9 h     dx  0.0049238-0.0007832-0.0002473-0.0416006-0.0173620 0.0000000
           dy -0.0009242-0.0108173-0.0028616-0.0172333-0.3405513 0.0000000
           dz  0.0015946 0.0281455 0.0046646 0.0000000 0.0000000-0.0592550
  10 h     dx  0.0069342-0.0005600-0.0002381 0.0041280 0.0003501-0.0011746
           dy -0.0004533-0.0007779-0.0034233 0.0004954 0.0118595-0.0151752
           dz -0.0001676-0.0038700-0.0031879 0.0010401 0.0158805-0.0179687
  11 h     dx -0.0012428-0.0001359 0.0001736 0.0074706-0.0009821-0.0000830
           dy  0.0000151-0.0009235 0.0008355-0.0006807-0.0053759 0.0009468
           dz  0.0000037 0.0007245 0.0003485 0.0001839 0.0009491 0.0014699
  12 s     dx  0.0073961 0.0013809-0.0017276-0.0012867-0.0006726 0.0000000
           dy  0.0028422 0.0057650-0.0035635-0.0003028-0.0007170 0.0000000
           dz -0.0012446-0.0048075-0.0042299 0.0000000 0.0000000-0.0046512
  13 o     dx -0.0005740 0.0004778 0.0005029 0.0000561 0.0003587 0.0008215
           dy -0.0008845 0.0001007 0.0009976 0.0001928 0.0000453 0.0005011
           dz  0.0005558 0.0012605 0.0015726-0.0001656-0.0002063 0.0005092
  14 o     dx -0.0012699-0.0012325 0.0009730 0.0000561 0.0003587-0.0008215
           dy -0.0016393-0.0014755-0.0018867 0.0001928 0.0000453-0.0005011
           dz -0.0002139 0.0003282-0.0007342 0.0001656 0.0002063 0.0005092

   ATOM              5 c                           6 c 
                  dx        dy        dz        dx        dy        dz
   5 c     dx  0.1367125
           dy  0.0326993 0.6925390
           dz -0.0040916-0.0337225 0.7292260
   6 c     dx -0.0636036-0.0183601 0.0015905 0.1368082
           dy -0.0170632-0.3474920 0.0338823 0.0314935 0.6918390
           dz -0.0020683-0.0361282-0.1262153 0.0008324 0.0429859 0.7249105
   7 h     dx -0.0012428-0.0001359-0.0001736 0.0061120-0.0001264-0.0002848
           dy  0.0000151-0.0009235-0.0008355-0.0003699-0.0015160-0.0037044
           dz -0.0000037-0.0007245 0.0003485-0.0002981-0.0038586-0.0030218
   8 h     dx  0.0069342-0.0005600 0.0002381-0.0010089-0.0000722 0.0002553
           dy -0.0004533-0.0007779 0.0034233 0.0000144-0.0009201 0.0009039
           dz  0.0001676 0.0038700-0.0031879 0.0000407 0.0010060 0.0001237
   9 h     dx  0.0049238-0.0007832 0.0002473 0.0069878-0.0004548-0.0000583
           dy -0.0009242-0.0108173 0.0028616-0.0003783 0.0003529-0.0030831
           dz -0.0015946-0.0281455 0.0046646-0.0001695-0.0029831-0.0045485
  10 h     dx -0.0390851-0.0057435 0.0085579 0.0041357-0.0008084 0.0019075
           dy -0.0057840-0.1290994 0.1228386-0.0011402-0.0116139 0.0281677
           dz  0.0084126 0.1227644-0.2711068-0.0001704-0.0025015 0.0040177
  11 h     dx  0.0047461-0.0005765-0.0019645-0.0390127-0.0042415-0.0036454
           dy -0.0005695-0.0093423-0.0268292-0.0044903-0.1328665-0.1273398
           dz  0.0003148 0.0025449 0.0056399-0.0053113-0.1258666-0.2698756
  12 s     dx  0.0073961 0.0013809 0.0017276-0.0007521-0.0052657 0.0012545
           dy  0.0028422 0.0057650 0.0035635-0.0018269-0.0278942 0.0141071
           dz  0.0012446 0.0048075-0.0042299 0.0020953 0.0158493 0.0082725
  13 o     dx -0.0012699-0.0012325-0.0009730 0.0012670 0.0028029-0.0001021
           dy -0.0016393-0.0014755 0.0018867 0.0009478-0.0048829-0.0048855
           dz  0.0002139-0.0003282-0.0007342-0.0011148 0.0037150 0.0019386
  14 o     dx -0.0005740 0.0004778-0.0005029 0.0010005 0.0009129 0.0006874
           dy -0.0008845 0.0001007-0.0009976-0.0000798 0.0003203-0.0005738
           dz -0.0005558-0.0012605 0.0015726-0.0003710 0.0017058-0.0036514

   ATOM              7 h                           8 h 
                  dx        dy        dz        dx        dy        dz
   7 h     dx  0.0264408
           dy  0.0052710 0.1369278
           dz -0.0049739-0.1352176 0.2848289
   8 h     dx -0.0040612 0.0002495 0.0000835 0.0260827
           dy  0.0002932 0.0012128 0.0002809 0.0070571 0.1338241
           dz -0.0000317-0.0003380 0.0006409 0.0090043 0.1315951 0.2854059
   9 h     dx -0.0001372-0.0000124 0.0000182-0.0035608 0.0002339 0.0000669
           dy -0.0000395-0.0005084-0.0002750 0.0002487 0.0007664 0.0001886
           dz  0.0001212 0.0012654 0.0001689-0.0000420-0.0005932 0.0010344
  10 h     dx -0.0010328 0.0000457 0.0000305-0.0000058 0.0000172-0.0000499
           dy  0.0000669 0.0000300 0.0000774 0.0000172 0.0003998-0.0008186
           dz -0.0000024 0.0000768-0.0000159 0.0000499 0.0008186-0.0009188
  11 h     dx  0.0006398-0.0000190-0.0000041-0.0010328 0.0000669 0.0000024
           dy -0.0000190 0.0006691 0.0008511 0.0000457 0.0000300-0.0000768
           dz  0.0000041-0.0008511-0.0007692-0.0000305-0.0000774-0.0000159
  12 s     dx -0.0033122-0.0001178-0.0002144 0.0005401-0.0003260 0.0000978
           dy -0.0012647 0.0011152 0.0017433-0.0001176 0.0003439 0.0005121
           dz -0.0000286-0.0022526-0.0028322 0.0001965-0.0011163 0.0001890
  13 o     dx -0.0002296 0.0002522 0.0002734-0.0000114 0.0002498-0.0000060
           dy  0.0004634-0.0012126 0.0012545 0.0000376-0.0001105-0.0000961
           dz -0.0001345 0.0010194 0.0018975-0.0000198 0.0004115 0.0000243
  14 o     dx  0.0004087-0.0000274-0.0001695-0.0001856 0.0002161-0.0000354
           dy  0.0007442-0.0000012-0.0001402-0.0001674-0.0007084 0.0000422
           dz  0.0001859 0.0006857 0.0005301-0.0002513-0.0004127 0.0000030

   ATOM              9 h                          10 h 
                  dx        dy        dz        dx        dy        dz
   9 h     dx  0.0268058
           dy  0.0192443 0.3601698
           dz  0.0000000 0.0000000 0.0582326
  10 h     dx -0.0035608 0.0002487 0.0000420 0.0260827
           dy  0.0002339 0.0007664 0.0005932 0.0070571 0.1338241
           dz -0.0000669-0.0001886 0.0010344-0.0090043-0.1315951 0.2854059
  11 h     dx -0.0001372-0.0000395-0.0001212-0.0040612 0.0002932 0.0000317
           dy -0.0000124-0.0005084-0.0012654 0.0002495 0.0012128 0.0003380
           dz -0.0000182 0.0002750 0.0001689-0.0000835-0.0002809 0.0006409
  12 s     dx -0.0013401 0.0001045 0.0000000 0.0005401-0.0003260-0.0000978
           dy -0.0003773 0.0000947 0.0000000-0.0001176 0.0003439-0.0005121
           dz  0.0000000 0.0000000-0.0003579-0.0001965 0.0011163 0.0001890
  13 o     dx  0.0000816 0.0000088 0.0000625-0.0001856 0.0002161 0.0000354
           dy  0.0001557-0.0001268 0.0000667-0.0001674-0.0007084-0.0000422
           dz -0.0000765-0.0000001 0.0002393 0.0002513 0.0004127 0.0000030
  14 o     dx  0.0000816 0.0000088-0.0000625-0.0000114 0.0002498 0.0000060
           dy  0.0001557-0.0001268-0.0000667 0.0000376-0.0001105 0.0000961
           dz  0.0000765 0.0000001 0.0002393 0.0000198-0.0004115 0.0000243

   ATOM             11 h                          12 s 
                  dx        dy        dz        dx        dy        dz
  11 h     dx  0.0264408
           dy  0.0052710 0.1369278
           dz  0.0049739 0.1352176 0.2848289
  12 s     dx -0.0033122-0.0001178 0.0002144 0.2782334
           dy -0.0012647 0.0011152-0.0017433-0.1277063 0.3854201
           dz  0.0000286 0.0022526-0.0028322 0.0000000 0.0000000 0.9076060
  13 o     dx  0.0004087-0.0000274 0.0001695-0.1171290 0.0816981-0.1687531
           dy  0.0007442-0.0000012 0.0001402 0.0624458-0.1149400 0.1487151
           dz -0.0001859-0.0006857 0.0005301-0.1351534 0.1416869-0.4267124
  14 o     dx -0.0002296 0.0002522-0.0002734-0.1171290 0.0816981 0.1687531
           dy  0.0004634-0.0012126-0.0012545 0.0624458-0.1149400-0.1487151
           dz  0.0001345-0.0010194 0.0018975 0.1351534-0.1416869-0.4267124

   ATOM             13 o                          14 o 
                  dx        dy        dz        dx        dy        dz
  13 o     dx  0.0870376
           dy -0.0713068 0.1171367
           dz  0.1530769-0.1632557 0.4464547
  14 o     dx  0.0204295-0.0062618-0.0149623 0.0870376
           dy -0.0062618 0.0127545 0.0119357-0.0713068 0.1171367
           dz  0.0149623-0.0119357-0.0144634-0.1530769 0.1632557 0.4464547
 

   *** projected hessian written onto $hessian (projected), file=<hessian> ***

 dipole moment in principle axis system (a.u.) :
     0.3943581074    -1.8654479761     0.0000000000
 norm :   1.90667628831120     

 rotational constants b for rotations around axis of inertia
 and optical intensities for (1 <-- 0) transition

   b   :     0.0264684363     0.1158574201     0.0337154074   (cm**(-1))
   b   :         793.5038        3473.3181        1010.7625     (MHz)
  int. :     0.1555183169     3.4798961515     0.0000000000     (a.u.)

   x   :     0.9999882348    -0.0048507911     0.0000000000
   y   :     0.0048507911     0.9999882348     0.0000000000
   z   :     0.0000000000     0.0000000000     1.0000000000

   ***  normal modes written onto $vibrational normal modes, file=<vib_normal_modes>  ***

 keyword $vibrational reduced masses missing in file <control>


   ***  vibrational spectroscopic data written onto$vibrational spectrum   
        file=<vibspectrum>  ***

          ---------------------------------------------------
          NORMAL MODES and VIBRATIONAL FREQUENCIES (cm**(-1))
          ---------------------------------------------------

 imaginary wave numbers indicate a negative curvature of the energy surface.
 zero frequency modes have no physical meaning except being generators of
 translations and rotations. each vibrational normal mode - given in terms of
 cartesian displacement vectors of all atoms - has been normalized to unity.
 to obtain mass-weigthed normal coordinates in a.u. divide the tabulated
 modes by sqrt(reduced mass * 1822.88853).
 band intensities or cross sections refer to independent non-degenerate normal
 modes, that is, the intensities of degenerate modes have yet to be added.
 dDIP/dQ is the normal mode derivative of the dipole moment.


       mode               1        2        3        4        5        6

     frequency           0.00     0.00     0.00     0.00     0.00     0.00

     symmetry                                                             

        IR                -        -        -        -        -        - 
|dDIP/dQ|   (a.u.)     0.0000   0.0000   0.0000   0.0000   0.0000   0.0000
intensity (km/mol)       0.00     0.00     0.00     0.00     0.00     0.00
intensity (  %   )       0.00     0.00     0.00     0.00     0.00     0.00
 
       RAMAN              -        -        -        -        -        - 
 
  1   c           x   0.05983 -0.09110  0.04108  0.16886  0.07873  0.05943
                  y   0.08605  0.18675  0.04554 -0.03898  0.10814  0.08547
                  z   0.09249  0.07411  0.11678  0.04657 -0.10251 -0.13852
  2   c           x  -0.14600 -0.02523  0.16771  0.21062  0.17561 -0.06800
                  y   0.13002  0.14692  0.00980 -0.06560  0.17607 -0.01661
                  z   0.07282  0.09455  0.13365  0.06028 -0.14191 -0.07970
  3   c           x  -0.19348  0.08792  0.08852  0.29973  0.18738 -0.11577
                  y   0.13254  0.14059  0.01466 -0.07062  0.17479 -0.01295
                  z   0.03598  0.13667  0.16509  0.08873 -0.22555  0.04448
  4   c           x  -0.03702  0.13308 -0.11310  0.34526  0.10347 -0.03677
                  y   0.09121  0.17481  0.05376 -0.04838  0.10683  0.09059
                  z   0.01739  0.15763  0.18096  0.10288 -0.26700  0.10606
  5   c           x   0.16809  0.06563 -0.23727  0.30218  0.00712  0.09055
                  y   0.04715  0.21533  0.08852 -0.02118  0.03955  0.19143
                  z   0.03598  0.13667  0.16509  0.08873 -0.22555  0.04448
  6   c           x   0.21846 -0.04770 -0.16069  0.21308 -0.00609  0.13997
                  y   0.04394  0.22225  0.08426 -0.01576  0.03974  0.18940
                  z   0.07282  0.09455  0.13365  0.06028 -0.14191 -0.07970
  7   h           x  -0.26496 -0.06253  0.32429  0.17359  0.23973 -0.12750
                  y   0.16203  0.11999 -0.01975 -0.08320  0.22817 -0.09580
                  z   0.08945  0.07739  0.11938  0.04877 -0.10889 -0.12901
  8   h           x  -0.35312  0.14091  0.18463  0.33366  0.26232 -0.21496
                  y   0.16701  0.10856 -0.01199 -0.09219  0.22701 -0.09107
                  z   0.02228  0.15312  0.17674  0.09987 -0.25865  0.09349
  9   h           x  -0.07526  0.22159 -0.17397  0.41491  0.11323 -0.07476
                  y   0.09340  0.16972  0.05726 -0.05238  0.10626  0.09278
                  z  -0.01157  0.19057  0.20567  0.12511 -0.33230  0.20303
 10   h           x   0.28943  0.10129 -0.39434  0.33801 -0.05803  0.15169
                  y   0.01526  0.24137  0.11928 -0.00432 -0.01333  0.27213
                  z   0.02228  0.15312  0.17674  0.09987 -0.25865  0.09349
 11   h           x   0.37704 -0.10212 -0.25419  0.17794 -0.08034  0.23884
                  y   0.01041  0.25269  0.11140  0.00460 -0.01197  0.26709
                  z   0.08945  0.07739  0.11938  0.04877 -0.10889 -0.12901
 12   s           x   0.12284 -0.23695  0.14139  0.05410  0.06263  0.12202
                  y   0.08048  0.19963  0.03668 -0.02885  0.10956  0.07994
                  z   0.13199  0.02035  0.08346  0.00988  0.00918 -0.30299
 13   o           x  -0.05096 -0.26659  0.34266  0.02018  0.15364  0.03042
                  y   0.14354  0.11884  0.02583 -0.08746  0.17673 -0.01076
                  z   0.22534  0.00000 -0.00000  0.00000  0.00000 -0.30290
 14   o           x   0.33247 -0.29024 -0.00284  0.02277 -0.03753  0.24921
                  y   0.05299  0.19809  0.10416 -0.03502  0.03331  0.20598
                  z   0.22534  0.00000  0.00000  0.00000  0.00000 -0.30290

reduced mass(g/mol)     8.166   10.751    7.004    6.427    6.707   10.903


       mode               7        8        9       10       11       12

     frequency          46.29   135.17   169.44   298.69   367.26   391.01

     symmetry            a"       a'       a"       a'       a"       a'  

        IR               YES      YES      YES      YES      YES      YES
|dDIP/dQ|   (a.u.)     0.0006   0.0010   0.0006   0.0014   0.0002   0.0025
intensity (km/mol)       0.55     1.77     0.60     3.49     0.05    10.67
intensity (  %   )       0.48     1.54     0.52     3.04     0.04     9.29
 
       RAMAN             YES      YES      YES      YES      YES      YES
 
  1   c           x  -0.00000 -0.31716  0.00000  0.01739 -0.00000 -0.22586
                  y   0.00000 -0.00668 -0.00000 -0.08777 -0.00000  0.00218
                  z   0.02759 -0.00000 -0.21781 -0.00000  0.25092 -0.00000
  2   c           x  -0.20252 -0.23935 -0.00905  0.10745  0.05232  0.13335
                  y   0.03049 -0.01595 -0.14559 -0.20012  0.11562  0.03575
                  z   0.01687  0.00046 -0.13811  0.03668  0.23695 -0.02466
  3   c           x  -0.21761  0.06227 -0.01641  0.02611 -0.03845  0.12956
                  y   0.03001 -0.03376 -0.15349 -0.22102  0.13654  0.05118
                  z  -0.00194  0.00032  0.06599  0.03126  0.03826 -0.02169
  4   c           x   0.00000  0.27543 -0.00000 -0.12736 -0.00000 -0.22483
                  y   0.00000 -0.04707 -0.00000 -0.26330 -0.00000  0.10261
                  z  -0.01352  0.00000  0.15779  0.00000 -0.05359  0.00000
  5   c           x   0.21761  0.06227  0.01641  0.02611  0.03845  0.12956
                  y  -0.03001 -0.03376  0.15349 -0.22102 -0.13654  0.05118
                  z  -0.00194 -0.00032  0.06599 -0.03126  0.03826  0.02169
  6   c           x   0.20252 -0.23935  0.00905  0.10745 -0.05232  0.13335
                  y  -0.03049 -0.01595  0.14559 -0.20012 -0.11562  0.03575
                  z   0.01687 -0.00046 -0.13811 -0.03668  0.23695  0.02466
  7   h           x  -0.34461 -0.31976 -0.01165  0.17496  0.11754  0.33064
                  y   0.05711 -0.01260 -0.27852 -0.27446  0.23475  0.06377
                  z   0.03039  0.00014 -0.22125 -0.01080  0.30839 -0.00253
  8   h           x  -0.39257  0.17767 -0.03209  0.04468 -0.08429  0.30596
                  y   0.05421 -0.04147 -0.28634 -0.17964  0.27175  0.01354
                  z  -0.00918  0.00022  0.14307  0.00553 -0.03648 -0.00596
  9   h           x   0.00000  0.59502 -0.00000 -0.29460 -0.00000 -0.52954
                  y   0.00000 -0.06547 -0.00000 -0.25397 -0.00000  0.12045
                  z  -0.02913  0.00000  0.29236  0.00000 -0.18107  0.00000
 10   h           x   0.39257  0.17767  0.03209  0.04468  0.08429  0.30596
                  y  -0.05421 -0.04147  0.28634 -0.17964 -0.27175  0.01354
                  z  -0.00918 -0.00022  0.14307 -0.00553 -0.03648  0.00596
 11   h           x   0.34461 -0.31976  0.01165  0.17496 -0.11754  0.33064
                  y  -0.05711 -0.01260  0.27852 -0.27446 -0.23475  0.06377
                  z   0.03039 -0.00014 -0.22125  0.01080  0.30839  0.00253
 12   s           x  -0.00000 -0.00873 -0.00000 -0.04939 -0.00000 -0.18455
                  y   0.00000 -0.03993 -0.00000  0.14163 -0.00000 -0.15054
                  z   0.06106 -0.00000 -0.01927  0.00000 -0.20039  0.00000
 13   o           x   0.34708  0.14756  0.06108 -0.01405 -0.01089  0.13329
                  y  -0.01060  0.10297  0.33179  0.34263  0.28637  0.03759
                  z  -0.07809 -0.00291  0.09169  0.07028 -0.09131 -0.04671
 14   o           x  -0.34708  0.14756 -0.06108 -0.01405  0.01089  0.13329
                  y   0.01060  0.10297 -0.33179  0.34263 -0.28637  0.03759
                  z  -0.07809  0.00291  0.09169 -0.07028 -0.09131  0.04671

reduced mass(g/mol)     6.923    5.374    6.988    8.686    7.757    5.514


       mode              13       14       15       16       17       18

     frequency         398.88   486.97   518.13   617.65   684.50   699.30

     symmetry            a"       a'       a'       a"       a'       a'  

        IR               YES      YES      YES      YES      YES      YES
|dDIP/dQ|   (a.u.)     0.0001   0.0049   0.0044   0.0001   0.0034   0.0016
intensity (km/mol)       0.01    41.91    34.41     0.01    19.99     4.37
intensity (  %   )       0.01    36.49    29.96     0.01    17.40     3.80
 
       RAMAN             YES      YES      YES      YES      YES      YES
 
  1   c           x   0.00000 -0.00548  0.33283  0.00000 -0.18262  0.05605
                  y  -0.00000 -0.15738 -0.05315 -0.00000  0.03578  0.31590
                  z   0.02097 -0.00000  0.00000 -0.13878  0.00000  0.00000
  2   c           x  -0.20400  0.01304  0.04021  0.01484  0.13427 -0.00747
                  y   0.02064  0.05401  0.00229  0.23579 -0.00302  0.07517
                  z   0.01857 -0.09863 -0.02765 -0.21486  0.02018  0.22991
  3   c           x   0.19925 -0.00202 -0.13589  0.01781 -0.16645  0.03127
                  y  -0.00210  0.08966  0.02144  0.25188  0.01461  0.06619
                  z   0.00316 -0.08310 -0.01954  0.24177  0.01827  0.24768
  4   c           x  -0.00000  0.02618  0.18620  0.00000  0.11570 -0.02430
                  y  -0.00000  0.21439  0.03156  0.00000 -0.02795 -0.29702
                  z  -0.00374  0.00000 -0.00000  0.14848  0.00000 -0.00000
  5   c           x  -0.19925 -0.00202 -0.13589 -0.01781 -0.16645  0.03127
                  y   0.00210  0.08966  0.02144 -0.25188  0.01461  0.06619
                  z   0.00316  0.08310  0.01954  0.24177 -0.01827 -0.24768
  6   c           x   0.20400  0.01304  0.04021 -0.01484  0.13427 -0.00747
                  y  -0.02064  0.05401  0.00229 -0.23579 -0.00302  0.07517
                  z   0.01857  0.09863  0.02765 -0.21486 -0.02018 -0.22991
  7   h           x  -0.46183  0.01127 -0.24656 -0.00992  0.51737 -0.14253
                  y   0.04763  0.19995  0.05206  0.09439 -0.04701 -0.16247
                  z   0.02907 -0.01094 -0.00430 -0.29880  0.00298  0.08924
  8   h           x   0.44746 -0.03303 -0.50499 -0.00538 -0.02889 -0.05286
                  y  -0.00816 -0.01558  0.01772  0.10023  0.03177  0.38781
                  z  -0.00305 -0.01951 -0.00267  0.33003  0.00337  0.06820
  9   h           x  -0.00000  0.03553  0.28676  0.00000  0.55787 -0.15799
                  y  -0.00000  0.21443  0.02594  0.00000 -0.05328 -0.28728
                  z  -0.01163  0.00000  0.00000 -0.27465 -0.00000  0.00000
 10   h           x  -0.44746 -0.03303 -0.50499  0.00538 -0.02889 -0.05286
                  y   0.00816 -0.01558  0.01772 -0.10023  0.03177  0.38781
                  z  -0.00305  0.01951  0.00267  0.33003 -0.00337 -0.06820
 11   h           x   0.46183  0.01127 -0.24656  0.00992  0.51737 -0.14253
                  y  -0.04763  0.19995  0.05206 -0.09439 -0.04701 -0.16247
                  z   0.02907  0.01094  0.00430 -0.29880 -0.00298 -0.08924
 12   s           x  -0.00000  0.18303 -0.18961 -0.00000  0.00687 -0.01695
                  y   0.00000 -0.37303 -0.10224 -0.00000 -0.00157 -0.11821
                  z  -0.01594  0.00000 -0.00000 -0.00683 -0.00000  0.00000
 13   o           x   0.00603 -0.19919  0.10532 -0.00440 -0.00595  0.00448
                  y   0.02606  0.22617  0.08752  0.00192 -0.00743  0.00010
                  z  -0.00808  0.44022 -0.03748 -0.01031  0.00373  0.07379
 14   o           x  -0.00603 -0.19919  0.10532  0.00440 -0.00595  0.00448
                  y  -0.02606  0.22617  0.08752 -0.00192 -0.00743  0.00010
                  z  -0.00808 -0.44022  0.03748 -0.01031 -0.00373 -0.07379

reduced mass(g/mol)     2.851   16.301    5.173    6.402    2.577    6.481


       mode              19       20       21       22       23       24

     frequency         765.82   863.01   954.09  1001.34  1013.76  1016.82

     symmetry            a'       a"       a'       a"       a'       a'  

        IR               YES      YES      YES      YES      YES      YES
|dDIP/dQ|   (a.u.)     0.0056   0.0004   0.0010   0.0003   0.0014   0.0009
intensity (km/mol)      54.92     0.25     1.83     0.12     3.43     1.43
intensity (  %   )      47.81     0.22     1.59     0.10     2.99     1.24
 
       RAMAN             YES      YES      YES      YES      YES      YES
 
  1   c           x   0.12594  0.00000 -0.04759  0.00000 -0.01025 -0.00028
                  y  -0.00278  0.00000 -0.00216 -0.00000 -0.14031 -0.02780
                  z   0.00000 -0.00083  0.00000  0.00058  0.00000  0.00000
  2   c           x  -0.06461 -0.07460  0.09390  0.09121  0.02649 -0.03517
                  y   0.00526  0.00606 -0.00222 -0.00515  0.13857  0.03413
                  z   0.00446 -0.00016 -0.00455 -0.00194 -0.24648 -0.05712
  3   c           x  -0.02788 -0.07140 -0.00761 -0.09445 -0.05444  0.08699
                  y   0.00401  0.00504  0.00110  0.00505  0.05629  0.00598
                  z   0.00486  0.00203  0.00142 -0.00031  0.10333  0.02093
  4   c           x  -0.08565  0.00000 -0.10178  0.00000  0.06147 -0.11110
                  y   0.00174 -0.00000 -0.00153  0.00000 -0.28647 -0.05799
                  z  -0.00000 -0.00082 -0.00000  0.00166  0.00000 -0.00000
  5   c           x  -0.02788  0.07140 -0.00761  0.09445 -0.05444  0.08699
                  y   0.00401 -0.00504  0.00110 -0.00505  0.05629  0.00598
                  z  -0.00486  0.00203 -0.00142 -0.00031 -0.10333 -0.02093
  6   c           x  -0.06461  0.07460  0.09390 -0.09121  0.02649 -0.03517
                  y   0.00526 -0.00606 -0.00222  0.00515  0.13857  0.03413
                  z  -0.00446 -0.00016  0.00455 -0.00194  0.24648  0.05712
  7   h           x   0.22640  0.49824 -0.57141 -0.48389 -0.10833  0.25355
                  y  -0.01559 -0.03351  0.04430  0.03885  0.17777  0.01756
                  z  -0.00081 -0.01000  0.00673  0.01010 -0.23663 -0.06242
  8   h           x   0.54642  0.48886  0.08428  0.49579  0.32559 -0.48116
                  y  -0.02343 -0.02838 -0.00226 -0.03345  0.02905  0.03974
                  z  -0.00146 -0.00031 -0.00066 -0.00123  0.09526  0.02133
  9   h           x   0.51358 -0.00000  0.54472  0.00000 -0.43969  0.58462
                  y  -0.03261 -0.00000 -0.03893  0.00000 -0.26467 -0.09977
                  z  -0.00000 -0.00543 -0.00000  0.00610  0.00000 -0.00000
 10   h           x   0.54642 -0.48886  0.08428 -0.49579  0.32559 -0.48116
                  y  -0.02343  0.02838 -0.00226  0.03345  0.02905  0.03974
                  z   0.00146 -0.00031  0.00066 -0.00123 -0.09526 -0.02133
 11   h           x   0.22640 -0.49824 -0.57141  0.48389 -0.10833  0.25355
                  y  -0.01559  0.03351  0.04430 -0.03885  0.17777  0.01756
                  z   0.00081 -0.01000 -0.00673  0.01010  0.23663  0.06242
 12   s           x  -0.01679 -0.00000  0.00656 -0.00000  0.01835  0.00249
                  y  -0.01154 -0.00000  0.00301  0.00000 -0.00741 -0.00252
                  z  -0.00000 -0.00063  0.00000  0.00036  0.00000 -0.00000
 13   o           x   0.00627 -0.00007 -0.00176  0.00041 -0.01647 -0.00367
                  y   0.00848 -0.00055 -0.00221  0.00020  0.01664  0.00415
                  z   0.00097  0.00067 -0.00118 -0.00027 -0.04501 -0.01033
 14   o           x   0.00627  0.00007 -0.00176 -0.00041 -0.01647 -0.00367
                  y   0.00848  0.00055 -0.00221 -0.00020  0.01664  0.00415
                  z  -0.00097  0.00067  0.00118 -0.00027  0.04501  0.01033

reduced mass(g/mol)     1.390    1.244    1.345    1.389    4.405    1.495


       mode              25       26       27       28       29       30

     frequency        1049.00  1073.37  1103.67  1106.06  1180.71  1196.00

     symmetry            a'       a'       a"       a'       a"       a'  

        IR               YES      YES      YES      YES      YES      YES
|dDIP/dQ|   (a.u.)     0.0017   0.0025   0.0021   0.0077   0.0003   0.0008
intensity (km/mol)       4.93    11.32     7.71   105.85     0.15     1.10
intensity (  %   )       4.29     9.86     6.71    92.15     0.13     0.95
 
       RAMAN             YES      YES      YES      YES      YES      YES
 
  1   c           x  -0.00841  0.00899  0.00000 -0.02192 -0.00000 -0.00224
                  y  -0.13231  0.21839  0.00000 -0.34902 -0.00000 -0.03281
                  z   0.00000 -0.00000  0.04047  0.00000 -0.00495  0.00000
  2   c           x  -0.00391  0.00324  0.00417 -0.00221  0.00005 -0.00226
                  y  -0.07761  0.00796  0.09687  0.00153 -0.00550 -0.04427
                  z   0.00106 -0.13496 -0.04237  0.08468  0.01125 -0.02292
  3   c           x   0.00544 -0.00525 -0.00284  0.00683 -0.00166  0.00275
                  y   0.06457 -0.05207 -0.06255  0.08218 -0.03255  0.04986
                  z   0.23911  0.01179 -0.05126  0.07036  0.02631 -0.02314
  4   c           x   0.00841  0.00152 -0.00000 -0.00282 -0.00000  0.00038
                  y   0.19506  0.02972 -0.00000 -0.03610  0.00000  0.00324
                  z   0.00000 -0.00000  0.07547  0.00000 -0.06796  0.00000
  5   c           x   0.00544 -0.00525  0.00284  0.00683  0.00166  0.00275
                  y   0.06457 -0.05207  0.06255  0.08218  0.03255  0.04986
                  z  -0.23911 -0.01179 -0.05126 -0.07036  0.02631  0.02314
  6   c           x  -0.00391  0.00324 -0.00417 -0.00221 -0.00005 -0.00226
                  y  -0.07761  0.00796 -0.09687  0.00153  0.00550 -0.04427
                  z  -0.00106  0.13496 -0.04237 -0.08468  0.01125  0.02292
  7   h           x  -0.02499 -0.03534  0.04322  0.03763  0.00766 -0.03138
                  y  -0.34239 -0.34991  0.47948  0.39079  0.12425 -0.40764
                  z  -0.14574 -0.36266  0.17724  0.33157  0.08910 -0.23765
  8   h           x  -0.01884 -0.01036 -0.02207  0.00142 -0.02435  0.02848
                  y  -0.23014 -0.35001 -0.29610  0.28192 -0.39716  0.45168
                  z   0.43123  0.18055  0.07656 -0.03812  0.23932 -0.25581
  9   h           x   0.02224  0.00347  0.00000  0.00329  0.00000 -0.00205
                  y   0.21642  0.03013 -0.00000 -0.03275  0.00000  0.00374
                  z   0.00000  0.00000  0.49247  0.00000 -0.71655  0.00000
 10   h           x  -0.01884 -0.01036  0.02207  0.00142  0.02435  0.02848
                  y  -0.23014 -0.35001  0.29610  0.28192  0.39716  0.45168
                  z  -0.43123 -0.18055  0.07656  0.03812  0.23932  0.25581
 11   h           x  -0.02499 -0.03534 -0.04322  0.03763 -0.00766 -0.03138
                  y  -0.34239 -0.34991 -0.47948  0.39079 -0.12425 -0.40764
                  z   0.14574  0.36266  0.17724 -0.33157  0.08910  0.23765
 12   s           x   0.01702 -0.06828  0.00000 -0.09195 -0.00000 -0.00106
                  y  -0.00423  0.06053 -0.00000  0.13459  0.00000  0.00571
                  z   0.00000 -0.00000  0.00379 -0.00000  0.00018  0.00000
 13   o           x  -0.01615  0.06875 -0.00352  0.09540  0.00008  0.00164
                  y   0.01973 -0.07752  0.00523 -0.09450 -0.00094 -0.00171
                  z  -0.04349  0.16948 -0.00854  0.20591  0.00086  0.00300
 14   o           x  -0.01615  0.06875  0.00352  0.09540 -0.00008  0.00164
                  y   0.01973 -0.07752 -0.00523 -0.09450  0.00094 -0.00171
                  z   0.04349 -0.16948 -0.00854 -0.20591  0.00086 -0.00300

reduced mass(g/mol)     3.190    3.451    1.483    5.422    1.101    1.143


       mode              31       32       33       34       35       36

     frequency        1283.28  1332.87  1368.74  1483.74  1508.01  1639.23

     symmetry            a"       a"       a"       a"       a'       a'  

        IR               YES      YES      YES      YES      YES      YES
|dDIP/dQ|   (a.u.)     0.0080   0.0001   0.0011   0.0027   0.0018   0.0008
intensity (km/mol)     114.86     0.02     2.12    12.76     5.64     1.10
intensity (  %   )     100.00     0.02     1.85    11.11     4.91     0.96
 
       RAMAN             YES      YES      YES      YES      YES      YES
 
  1   c           x   0.00000 -0.00000  0.00000  0.00000 -0.00526  0.00745
                  y   0.00000 -0.00000  0.00000  0.00000 -0.11736  0.13232
                  z   0.02267 -0.14794 -0.26118  0.16479  0.00000  0.00000
  2   c           x   0.00747 -0.00367  0.01797  0.00542  0.00597 -0.01703
                  y   0.06513 -0.04675  0.27357  0.08181  0.09974 -0.28474
                  z   0.01203  0.00745  0.14583 -0.06589  0.11051 -0.06973
  3   c           x   0.00018 -0.00132 -0.01366 -0.00808  0.00405  0.01805
                  y  -0.01353 -0.02811 -0.23630 -0.14200  0.07746  0.31084
                  z  -0.01075  0.04742  0.13540 -0.01524 -0.10472 -0.08993
  4   c           x   0.00000 -0.00000  0.00000  0.00000 -0.00515 -0.00987
                  y   0.00000 -0.00000  0.00000  0.00000 -0.09073 -0.16484
                  z  -0.01763  0.02209 -0.29760  0.15028  0.00000 -0.00000
  5   c           x  -0.00018  0.00132  0.01366  0.00808  0.00405  0.01805
                  y   0.01353  0.02811  0.23630  0.14200  0.07746  0.31084
                  z  -0.01075  0.04742  0.13540 -0.01524  0.10472  0.08993
  6   c           x  -0.00747  0.00367 -0.01797 -0.00542  0.00597 -0.01703
                  y  -0.06513  0.04675 -0.27357 -0.08181  0.09974 -0.28474
                  z   0.01203  0.00745  0.14583 -0.06589 -0.11051  0.06973
  7   h           x  -0.01654  0.03293 -0.03725 -0.00762 -0.03070  0.01666
                  y  -0.08693  0.44821 -0.32762 -0.08437 -0.43595  0.22303
                  z  -0.08620  0.30566 -0.21766 -0.18582 -0.19666  0.24944
  8   h           x  -0.01550  0.02042  0.00680  0.01614 -0.02445 -0.01515
                  y  -0.14692  0.36404  0.12156  0.29487 -0.42720 -0.28886
                  z   0.06455 -0.17581 -0.07190 -0.28959  0.17558  0.26927
  9   h           x   0.00000 -0.00000 -0.00000 -0.00000 -0.00642 -0.00777
                  y   0.00000 -0.00000  0.00000  0.00000 -0.11107 -0.18903
                  z   0.19441 -0.21888  0.38520 -0.67942 -0.00000  0.00000
 10   h           x   0.01550 -0.02042 -0.00680 -0.01614 -0.02445 -0.01515
                  y   0.14692 -0.36404 -0.12156 -0.29487 -0.42720 -0.28886
                  z   0.06455 -0.17581 -0.07190 -0.28959 -0.17558 -0.26927
 11   h           x   0.01654 -0.03293  0.03725  0.00762 -0.03070  0.01666
                  y   0.08693 -0.44821  0.32762  0.08437 -0.43595  0.22303
                  z  -0.08620  0.30566 -0.21766 -0.18582  0.19666 -0.24944
 12   s           x   0.00000 -0.00000  0.00000  0.00000 -0.00029  0.00193
                  y  -0.00000  0.00000 -0.00000 -0.00000  0.00172  0.00285
                  z  -0.49527 -0.00873  0.02089 -0.00485 -0.00000  0.00000
 13   o           x   0.19124  0.00441 -0.00743  0.00011  0.00035 -0.00163
                  y  -0.19154 -0.00811  0.00045  0.00350  0.00124 -0.00014
                  z   0.48866  0.01352 -0.01621 -0.00115 -0.00201  0.00070
 14   o           x  -0.19124 -0.00441  0.00743 -0.00011  0.00035 -0.00163
                  y   0.19154  0.00811 -0.00045 -0.00350  0.00124 -0.00014
                  z   0.48866  0.01352 -0.01621 -0.00115  0.00201 -0.00070

reduced mass(g/mol)    18.095    1.381    6.515    2.250    2.113    5.711


       mode              37       38       39       40       41       42

     frequency        1646.51  3191.44  3202.95  3211.68  3222.11  3223.53

     symmetry            a"       a'       a"       a'       a"       a'  

        IR               YES      YES      YES      YES      YES      YES
|dDIP/dQ|   (a.u.)     0.0004   0.0004   0.0019   0.0012   0.0001   0.0022
intensity (km/mol)       0.27     0.33     6.31     2.35     0.02     8.66
intensity (  %   )       0.24     0.29     5.49     2.05     0.01     7.54
 
       RAMAN             YES      YES      YES      YES      YES      YES
 
  1   c           x  -0.00000 -0.00001  0.00000 -0.00000  0.00000 -0.00002
                  y  -0.00000 -0.00054  0.00000  0.00104 -0.00000 -0.00224
                  z   0.33899  0.00000  0.00032 -0.00000  0.00354  0.00000
  2   c           x  -0.00562 -0.00019  0.00038  0.00059  0.00141 -0.00124
                  y  -0.11102 -0.00487  0.00900  0.01395  0.03063 -0.02781
                  z  -0.20924  0.01020 -0.01836 -0.02666 -0.04943  0.04520
  3   c           x  -0.00337 -0.00143  0.00188  0.00097 -0.00091  0.00112
                  y  -0.07410 -0.02153  0.02827  0.01429 -0.01339  0.01658
                  z   0.21463 -0.03469  0.04982  0.03140 -0.01846  0.02655
  4   c           x   0.00000  0.00340  0.00000  0.00343  0.00000  0.00129
                  y   0.00000  0.05923  0.00000  0.06002  0.00000  0.02195
                  z  -0.38327 -0.00000 -0.00369  0.00000  0.00220 -0.00000
  5   c           x   0.00337 -0.00143 -0.00188  0.00097  0.00091  0.00112
                  y   0.07410 -0.02153 -0.02827  0.01429  0.01339  0.01658
                  z   0.21463  0.03469  0.04982 -0.03140 -0.01846 -0.02655
  6   c           x   0.00562 -0.00019 -0.00038  0.00059 -0.00141 -0.00124
                  y   0.11102 -0.00487 -0.00900  0.01395 -0.03063 -0.02781
                  z  -0.20924 -0.01020 -0.01836  0.02666 -0.04943 -0.04520
  7   h           x   0.02303  0.00266 -0.00477 -0.00700 -0.01350  0.01229
                  y   0.28559  0.06998 -0.12484 -0.17803 -0.33750  0.30476
                  z   0.00939 -0.12005  0.21444  0.30360  0.56689 -0.51122
  8   h           x   0.01075  0.01635 -0.02221 -0.01266  0.00847 -0.01160
                  y   0.24539  0.24335 -0.32975 -0.18867  0.12500 -0.16978
                  z   0.05519  0.41757 -0.57049 -0.33388  0.21198 -0.29241
  9   h           x  -0.00000 -0.04005 -0.00000 -0.03854 -0.00000 -0.01350
                  y   0.00000 -0.69638 -0.00000 -0.66963 -0.00000 -0.23251
                  z   0.48119  0.00000  0.00441 -0.00000 -0.00239  0.00000
 10   h           x  -0.01075  0.01635  0.02221 -0.01266 -0.00847 -0.01160
                  y  -0.24539  0.24335  0.32975 -0.18867 -0.12500 -0.16978
                  z   0.05519 -0.41757 -0.57049  0.33388  0.21198  0.29241
 11   h           x  -0.02303  0.00266  0.00477 -0.00700  0.01350  0.01229
                  y  -0.28559  0.06998  0.12484 -0.17803  0.33750  0.30476
                  z   0.00939  0.12005  0.21444 -0.30360  0.56689  0.51122
 12   s           x  -0.00000 -0.00000  0.00000 -0.00002  0.00000  0.00002
                  y   0.00000  0.00002 -0.00000 -0.00001 -0.00000 -0.00009
                  z  -0.00784  0.00000 -0.00013 -0.00000 -0.00031  0.00000
 13   o           x   0.00085  0.00001  0.00001  0.00000  0.00003 -0.00003
                  y   0.00513 -0.00003  0.00010  0.00009  0.00025 -0.00006
                  z   0.00120 -0.00002  0.00007  0.00008  0.00013 -0.00017
 14   o           x  -0.00085  0.00001 -0.00001  0.00000 -0.00003 -0.00003
                  y  -0.00513 -0.00003 -0.00010  0.00009 -0.00025 -0.00006
                  z   0.00120  0.00002  0.00007 -0.00008  0.00013  0.00017

reduced mass(g/mol)     6.262    1.086    1.090    1.094    1.094    1.097
 

         **************************************************************
         *                                                            *
         *  zero point VIBRATIONAL energy  :      0.0989887  Hartree  *
         *    SCF-energy                   :   -779.8093458           *
         *    SCF + E(vib0)                :   -779.7103571           *
         *                                                            *
         **************************************************************




 time elapsed for vibrational analysis     0.05 sec


    ------------------------------------------------------------------------
         total  cpu-time :  8 hours 12 minutes and  4 seconds
         total wall-time :  2 hours  6 minutes and 24 seconds
    ------------------------------------------------------------------------

   ****  force : all done  ****


    2019-01-29 15:58:55.658 

aoforce ended normally 
