
   OpenMP run-time library returned nthreads =  8
 operating system is UNIX !

 force (u-3-2.local) : TURBOMOLE V7.2 ( 21285 ) 30 Jun 2017 at 09:40:16
 Copyright (C) 2017 TURBOMOLE GmbH, Karlsruhe


    2017-09-21 15:59:07.644 



                             T U R B O M O L E   

                          a o f o r c e - program

                        using direct algorithms for

                       SCF level calculations of
                         * harmonic force constants
                         * hyperpolarizabilities
                         * IR and RAMAN intensities
                         * VCD intensities

                       DFT level calculations of
                         * harmonic force constants
                         * IR intensities
                                                   
       Stephan Boecker, Peter Deglmann, Filipp Furche and Marco Haeser
                          Quantum Chemistry Group
                          Universitaet  Karlsruhe
                                   Germany

 
 

          OpenMP Shared-Memory Parallelization:  8 CPUs.

            By: Erik P. Almaraz and Filipp Furche
            Copyright 2009-2011 by UCI and TURBOMOLE GmbH.

 
 
     References :
 
       RI-J implementation:
         Peter Deglmann, Klaus May, Filipp Furche, Reinhart Ahlrichs
                 Chem. Phys. Lett. 384:103 (2004)
 
       Efficiency, technical details:
         Peter Deglmann, Filipp Furche, Reinhart Ahlrichs
                 Chem. Phys. Lett. 362:511 (2002)
 
       Search of lowest eigenvalues by iterative diagonalization:
         Peter Deglmann, Filipp Furche
                 J. Chem. Phys. 117:9535 (2002)
 
       Vibrational circular dichroism implementation:
        Kevin Reiter, Michael Kuehn, Florian Weigend
                 J. Chem. Phys. 146:054102 (2017)  
 
 


              +--------------------------------------------------+
              | Atomic coordinate, charge and isotop information |
              +--------------------------------------------------+

                    atomic coordinates            atom    charge  isotop
          2.30474001   -0.00000002   -1.75155913    c      6.000     0
          2.28048977    0.00000003    0.88502172    c      6.000     0
          0.00000003    0.00000001    2.18324051    c      6.000     0
         -2.28048967    0.00000000    0.88502168    c      6.000     0
         -2.30474010   -0.00000001   -1.75155920    c      6.000     0
         -0.00000000   -0.00000010   -2.92422708    c      6.000     0
          4.06694802    0.00000001   -2.79332109    h      1.000     0
          4.05111833    0.00000006    1.91541952    h      1.000     0
         -0.00000005   -0.00000007    4.22986432    h      1.000     0
         -4.05111824    0.00000001    1.91541954    h      1.000     0
         -4.06694811    0.00000008   -2.79332117    h      1.000     0
 
       center of nuclear mass  :    0.00000001   -0.00000001   -0.35305008
       center of nuclear charge:    0.00000001   -0.00000001   -0.30171483

              +--------------------------------------------------+
              |               basis set information              |
              +--------------------------------------------------+

              we will work with the 1s 3p 5d 7f 9g ... basis set
              ...i.e. with spherical basis functions...

   type   atoms  prim   cont   basis
   ---------------------------------------------------------------------------
    c        6     66     46   aug-cc-pVTZ   [5s4p3d2f|19s6p3d2f]
    h        5     25     23   aug-cc-pVTZ   [4s3p2d|6s3p2d]
   ---------------------------------------------------------------------------
   total:   11    521    391
   ---------------------------------------------------------------------------

   total number of primitive shells          :   41
   total number of contracted shells         :  129
   total number of cartesian basis functions :  455
   total number of SCF-basis functions       :  391

 
             FOUND RI-J FLAG !
 

 NOTE: THIS IS A PRELIMINARY IMPLEMENTATION. THE RI APPROXIMATION IS
       PRESENTLY USED FOR CPKS CONTRIBUTIONS TO THE HESSIAN ONLY! SEE
       MANUAL FOR FURTHER DETAILS.

  
 AUXILIARY BASIS SET information:

              we will work with the 1s 3p 5d 7f 9g ... basis set
              ...i.e. with spherical basis functions...

   type   atoms  prim   cont   basis
   ---------------------------------------------------------------------------
    c        6     70     49   aug-cc-pVTZ   [6s4p3d1f1g|12s5p4d2f1g]
    h        5     16     11   aug-cc-pVTZ   [3s1p1d|5s2p1d]
   ---------------------------------------------------------------------------
   total:   11    500    349
   ---------------------------------------------------------------------------

   total number of primitive shells          :   32
   total number of contracted shells         :  115
   total number of cartesian basis functions :  426
   total number of SCF-basis functions       :  349


 symmetry group of the molecule :   c1 

 the group has the following generators :
   c1(z)

    1 symmetry operations found

 there are 1 real representations :   a   

 maximum number of shells which are related by symmetry :  1


 determining totally symmetric integral contributions 
    - equivalent to irreducible tensor elements - 
 which can be formed within each triple of representations :

             representation triple      contributions

              a     a     a               1
       UHF mode switched on !

    mo occupation :
   irrep   mo's   occupied
    a      391       21
 
 number of basis functions   :                    391
 number of occupied orbitals :                     21
 
 ALPHA-Occupation:                    21
 BETA-Occupation :                    20
  MOs are in ASCII format !


 reading orbital data $uhfmo_alpha  from file alpha
 orbital characterization : scfconv=6

 reading orbital data $uhfmo_beta  from file beta
 orbital characterization : scfconv=6
 time elapsed for calculating density matrices :   0.118 sec

 number of non-frozen orbitals          :   391
 number of non-frozen occupied orbitals :    21

 number of non-frozen orbitals          :   391
 number of non-frozen occupied orbitals :    20
 Blocking parameters 
 shells:
    index      start shell   last shell  start bf    last bf    #bf 
       1             1         129             1        455    455
  
           ----------------------
               RI - INFORMATION
           ----------------------

 biggest AO integral is expected to be     3.593180334

 Threshold for integral neglect (rithr2):   0.55E-10
 Threshold for integral neglect (rithr1):   0.55E-10

 Contributions to RI integral batches: 
  neglected integral batches:                    92
  direct contribution:                            0
  memory contribution:                  8293
 Core memory available (ricore):               500 MiB
 Core memory needed for (P|Q) and Cholesky:      1 MiB
 Core memory used for integrals:               335 MiB
 
 ****************************************
 Memory allocated for RIDFT: 336 MiB
 ****************************************
 
  
           ------------------
           density functional
           ------------------
 PBE0 hybrid functional
 exchange:    3/4 (LDA+PBE) + 1/4 HF
 correlation: LDA (PW) + PBE

 iterations will be done with small grid
  
 spherical integration : Lebedev's spherical grid
 spherical gridsize    :                     4
    i.e. gridpoints    :                   434
 value for diffuse not defined
 radial integration    : Chebyshev 2nd kind (scaling 3)
 radial gridsize       :                     6
 integration cells     :                    11
 partition function    : becke
 partition sharpness   :                     3
  
 
 Derivatives of quadrature weights will be included
 
          Overall gridpoints after grid construction =        109211
 Ordering of quadrature gridpoints disabled.
 
 
 
 
 OCCUPIED-OCCUPIED TENSOR SPACES :

          IRREP   tensor space dimension   number of roots

           a               841                  27
 
 OCCUPIED-VIRTUAL TENSOR SPACES :

          IRREP   tensor space dimension   number of roots

           a             15190                  27
 
 
 
 
 CONSTRUCTING integral bounds

 setting up bound for integral derivative estimation

 increment for numerical differentiation : 0.00050000
 
 machine precision:   2.220446049250313E-016

 integral neglect threshold       :  0.10E-09
 integral storage threshold THIZE :  0.10E-04
 integral storage threshold THIME :         5

 
 
 
 PREPARING NUMERICAL INTEGRATION
 
 Remaining core memory for DFT =                  3843 MB
 
 Memory needed per atom    =                  4862 KiB
 
     i. e.                    11 atoms per loop

 Calculating ground state density on molecular grid

 Integral of ground state total density: Na =   40.99999452446142    

 Integral of ground state spin density:  Nb =  0.9999987011159911    


 
 
 CONSTRUCTING first deriv. of <mu|x,y,z|nu> -> Dip. deriv.
  dipole integral derivatives will be neglected if
  expon. factor <0.109890E-10
      ...terminated. cpu:       0.41       wall:       0.05
 
 
 
 
 CONSTRUCTING first deriv. of  <mu|nu>
                               <mu|h|nu>    -> RHS
              second deriv. of <mu|nu>      -> Hessian
                               <mu|h|nu>    -> Hessian
                               nucl. rep.   -> Hessian
     integrals are neglected if expon. factor <  1.000000000000000E-012
      ...terminated. cpu:       2.85       wall:       1.16
 
 
 
 
 CONSTRUCTING second deriv. of 2e energy    -> Hessian
   treating Coulomb (and exchange) contribution
     integrals will be neglected if total contribution <  1.098901098901099E-008
      ...terminated. cpu:    2115.93       wall:     264.54
   treating exchange-correlation contribution
      ...terminated. cpu:    1195.00       wall:     149.72
 
 
 
 
 CONSTRUCTING S(i,j)xi
      ...terminated. cpu:       0.11       wall:       0.03
 
 
 
 
 CONSTRUCTING <i|x,y,z|j>*S(i,j)xi          -> Dip. deriv.
      ...terminated. cpu:       0.19       wall:       0.03
 
 
 
 
 CONSTRUCTING epsilon(i)*S(i,j)xi*S(i,j)chi -> Hessian
      ...terminated. cpu:       0.00       wall:       0.00
 
 
 
 
 CONSTRUCTING G(a,i)[S(k,l)xi]              -> RHS
              G(i,j)[S(k,l)xi]*S(i,j)chi    -> Hessian
 
         Maximum core memory set to                   4000 MB
         This corresponds to                  1250 vectors in CAO basis
      ...terminated. cpu:    3365.39       wall:     421.05
 
 
 
 
 CONSTRUCTING G(mu,nu)[D(kap,lam)]xi
 
          Maximum core memory set to                   4000 MB
          Atoms treated simultaneously :                    11
      ...terminated. cpu:    2272.18       wall:     284.31
 
 
 
 
 CONSTRUCTING F(a,i)xi                      -> RHS
              F(i,j)xi*S(i,j)chi            -> Hessian
 
        Maximum core memory set to                  4000 MB
        This corresponds to                  2354 vectors in CAO basis
      ...terminated. cpu:       3.13       wall:       0.55
 
 
 
 
 CONSTRUCTING epsilon(i)*S(a,i)xi           -> RHS
      ...terminated. cpu:       1.64       wall:       0.38
 
 
 
 
 SOLVING CPHF equations
 
 Residuum convergence criterium   :  1.000000000000000E-005
 
 Maximum number of Davidson iterations set to                    25
  Switching to small grid
        preparing numerical integration ....
          Overall gridpoints after grid construction =         30400

 Calculating ground state density on molecular grid

 Integral of ground state total density: Na =   41.00008842458332    

 Integral of ground state spin density:  Nb =   1.000020722322252    




                       Nonorthonormal Krylov Space Iteration


 total number of roots to be determined:  27


 maximum core memory set to  4000 MB,
 corresponding to     1249 vectors in CAO basis


 maximum number of simultaneously treated vectors (including degeneracy):       27


 Iteration IRREP Converged      Max. Euclidean
                 roots          residual norm

    1       a        0        1.656078854994428D-01
 
    2       a        0        1.813224452717395D-02
 
    3       a        0        2.005266933953978D-03
 
    4       a        0        4.354590996220632D-04
 
    5       a        1        6.453064284239945D-05
 
    6       a       27        7.219464153201331D-06
 

 converged!

  Switching to fine grid
        preparing numerical integration ....
          Overall gridpoints after grid construction =        109211

 Calculating ground state density on molecular grid

 Integral of ground state total density: Na =   40.99999452446102    

 Integral of ground state spin density:  Nb =  0.9999987011159848    



 Iteration IRREP Converged      Max. Euclidean
                 roots          residual norm

    7       a        0        1.313043682277951D-04
 

 NOTE: Residual norms are larger than 1.00D-05 due to mgrid option!

      ...terminated. cpu:   16092.53       wall:    2013.25
 
 
 
 
 CONSTRUCTING <a|x,y,z|i>*U(a,i)xi          -> Dip. deriv.
      ...terminated. cpu:       0.31       wall:       0.04
 
 
 
 
 CONSTRUCTING RHS(a,i)xi*U(a,i)chi          -> Hessian
      ...terminated. cpu:       0.05       wall:       0.01
 
 
 
 

            -----------------------
            permanent dipole moment
            -----------------------

                                   x                y                z
    electronic part       :   -0.0000001988     0.0000005114    12.7080703703
     nuclear   part       :    0.0000002210    -0.0000004853   -12.3703078480
     total                :    0.0000000222     0.0000000261     0.3377625223

 with reference to the point :   0.0000000        0.0000000        0.0000000
 (given in atomic units)
    | dipole |       :    0.8585131873  debye

   ***  dipole moment & cartesian dipole gradients written onto
        $dipole, $dipgrad,  file=<dipgrad>  ***

             -----------------------------------
             rotational and vibrational analysis
             -----------------------------------


            ==============================================================
            ATOMIC WEIGHTS (average over the natural occurance of isotops)
            ==============================================================
            ('*' denotes special isotop !)
              1     c                12.01115
              2     c                12.01115
              3     c                12.01115
              4     c                12.01115
              5     c                12.01115
              6     c                12.01115
              7     h                 1.00797
              8     h                 1.00797
              9     h                 1.00797
             10     h                 1.00797
             11     h                 1.00797

          -------------------------------------------------
          CARTESIAN FORCE CONSTANT MATRIX (hartree/bohr**2)
         (translational & rotational space projected out)
          -------------------------------------------------

   ATOM              1 c                           2 c 
                  dx        dy        dz        dx        dy        dz
   1 c     dx  0.7349274
           dy  0.0000000 0.1233801
           dz -0.0391312 0.0000000 0.6251590
   2 c     dx -0.1161482-0.0000000-0.0342996 0.7202384
           dy  0.0000000-0.0605663 0.0000000 0.0000000 0.1309078
           dz  0.0439855 0.0000000-0.3233360 0.0294067 0.0000000 0.6688382
   3 c     dx  0.0342088 0.0000000 0.0750999-0.2904503-0.0000000 0.0602570
           dy  0.0000000 0.0063235-0.0000000-0.0000000-0.0625144 0.0000000
           dz  0.0256824-0.0000000-0.0297582 0.1247613 0.0000000-0.1776712
   4 c     dx -0.0155323 0.0000000-0.0347304-0.0621191-0.0000000 0.0239400
           dy -0.0000000-0.0027004-0.0000000 0.0000000 0.0045050-0.0000000
           dz -0.0309276-0.0000000-0.0498021-0.0239398-0.0000000 0.0637119
   5 c     dx -0.0568950-0.0000000-0.0153525-0.0155323 0.0000000 0.0309275
           dy -0.0000000 0.0041199 0.0000000-0.0000000-0.0027004-0.0000000
           dz  0.0153523 0.0000000 0.0639815 0.0347303-0.0000000-0.0498021
   6 c     dx -0.3134151-0.0000000-0.0867011 0.0261191-0.0000000-0.0906725
           dy -0.0000000-0.0513571-0.0000000-0.0000000 0.0124377-0.0000000
           dz -0.1155100-0.0000000-0.1470526-0.0321400-0.0000000-0.0299395
   7 h     dx -0.2630584-0.0000000 0.1274169 0.0035942 0.0000000-0.0021915
           dy -0.0000000-0.0349627 0.0000000 0.0000000 0.0055000-0.0000000
           dz  0.1220686 0.0000000-0.1271081 0.0287189-0.0000000-0.0106284
   8 h     dx  0.0030691 0.0000000 0.0032827-0.2669238-0.0000000-0.1210913
           dy -0.0000000 0.0045599-0.0000000-0.0000000-0.0374733-0.0000000
           dz -0.0273475-0.0000000-0.0118491-0.1221408-0.0000000-0.1279728
   9 h     dx -0.0040672-0.0000000 0.0030871 0.0044166-0.0000000 0.0280990
           dy  0.0000000 0.0064908-0.0000000 0.0000000 0.0036190 0.0000000
           dz  0.0031032 0.0000000 0.0005332-0.0028716 0.0000000-0.0115153
  10 h     dx  0.0001451-0.0000000-0.0008067-0.0032563-0.0000000-0.0039128
           dy  0.0000000-0.0011379 0.0000000-0.0000000 0.0067075-0.0000000
           dz -0.0015484-0.0000000-0.0000271-0.0029112 0.0000000-0.0005643
  11 h     dx -0.0032342 0.0000000 0.0021349 0.0000618 0.0000000 0.0012524
           dy -0.0000000 0.0058501-0.0000000 0.0000000-0.0004227-0.0000000
           dz  0.0042727-0.0000000-0.0007405 0.0006859 0.0000000-0.0011205

   ATOM              3 c                           4 c 
                  dx        dy        dz        dx        dy        dz
   3 c     dx  0.6753234
           dy  0.0000000 0.1343706
           dz  0.0000001-0.0000000 0.7461311
   4 c     dx -0.2904505 0.0000000-0.1247612 0.7202387
           dy  0.0000000-0.0625143 0.0000000-0.0000000 0.1309085
           dz -0.0602568 0.0000000-0.1776710-0.0294067-0.0000000 0.6688377
   5 c     dx  0.0342086-0.0000000-0.0256826-0.1161481 0.0000000-0.0439857
           dy -0.0000000 0.0063237-0.0000000 0.0000000-0.0605665 0.0000000
           dz -0.0751002-0.0000000-0.0297585 0.0342995 0.0000000-0.3233359
   6 c     dx -0.0735628 0.0000000 0.0000000 0.0261190 0.0000000 0.0906724
           dy  0.0000000-0.0065119 0.0000000-0.0000000 0.0124377-0.0000000
           dz -0.0000001-0.0000000-0.0031310 0.0321400-0.0000000-0.0299394
   7 h     dx  0.0020767-0.0000000-0.0003416 0.0000618 0.0000000-0.0012524
           dy  0.0000000 0.0069212-0.0000000-0.0000000-0.0004227-0.0000000
           dz -0.0011525-0.0000000-0.0054455-0.0006859 0.0000000-0.0011204
   8 h     dx -0.0176369-0.0000000-0.0163245-0.0032565-0.0000000 0.0039127
           dy -0.0000000 0.0036547 0.0000000 0.0000000 0.0067074-0.0000000
           dz  0.0146591 0.0000000 0.0114770 0.0029112 0.0000000-0.0005643
   9 h     dx -0.0581568-0.0000000 0.0000000 0.0044167 0.0000000-0.0280990
           dy  0.0000000-0.0366287 0.0000000-0.0000000 0.0036189 0.0000000
           dz  0.0000000 0.0000000-0.3402040 0.0028715-0.0000000-0.0115151
  10 h     dx -0.0176368-0.0000000 0.0163245-0.2669240 0.0000000 0.1210914
           dy -0.0000000 0.0036546 0.0000000 0.0000000-0.0374736-0.0000000
           dz -0.0146591-0.0000000 0.0114769 0.1221408 0.0000000-0.1279730
  11 h     dx  0.0020765 0.0000000 0.0003415 0.0035943-0.0000000 0.0021915
           dy -0.0000000 0.0069211-0.0000000 0.0000000 0.0055000-0.0000000
           dz  0.0011525 0.0000000-0.0054456-0.0287187 0.0000000-0.0106284

   ATOM              5 c                           6 c 
                  dx        dy        dz        dx        dy        dz
   5 c     dx  0.7349282
           dy -0.0000000 0.1233808
           dz  0.0391318-0.0000000 0.6251597
   6 c     dx -0.3134154 0.0000000 0.0867011 0.6889071
           dy  0.0000000-0.0513572-0.0000000-0.0000000 0.0733521
           dz  0.1155101-0.0000000-0.1470527-0.0000000 0.0000000 0.3462816
   7 h     dx -0.0032343-0.0000000-0.0021346-0.0211190 0.0000000 0.0111105
           dy  0.0000000 0.0058501-0.0000000-0.0000000-0.0009124 0.0000000
           dz -0.0042727-0.0000000-0.0007407-0.0114742-0.0000000 0.0115792
   8 h     dx  0.0001449 0.0000000 0.0008067 0.0018318-0.0000000-0.0002674
           dy -0.0000000-0.0011380-0.0000000 0.0000000 0.0070317 0.0000000
           dz  0.0015485-0.0000000-0.0000271-0.0010665-0.0000000-0.0066598
   9 h     dx -0.0040670 0.0000000-0.0030871-0.0021775-0.0000000 0.0000000
           dy  0.0000000 0.0064909-0.0000000-0.0000000-0.0012400-0.0000000
           dz -0.0031032 0.0000000 0.0005330 0.0000001 0.0000000 0.0009947
  10 h     dx  0.0030689-0.0000000-0.0032828 0.0018317 0.0000000 0.0002674
           dy  0.0000000 0.0045597-0.0000000 0.0000000 0.0070318-0.0000000
           dz  0.0273475-0.0000000-0.0118491 0.0010665-0.0000000-0.0066598
  11 h     dx -0.2630586 0.0000000-0.1274170-0.0211189 0.0000000-0.0111105
           dy  0.0000000-0.0349630 0.0000000 0.0000000-0.0009124 0.0000000
           dz -0.1220687 0.0000000-0.1271082 0.0114741-0.0000000 0.0115792

   ATOM              7 h                           8 h 
                  dx        dy        dz        dx        dy        dz
   7 h     dx  0.2816129
           dy  0.0000000 0.0228569
           dz -0.1335035-0.0000000 0.1322021
   8 h     dx  0.0006128 0.0000000-0.0005295 0.2821333
           dy  0.0000000-0.0039070 0.0000000 0.0000000 0.0248852
           dz  0.0003766-0.0000000 0.0014542 0.1308795 0.0000000 0.1327797
   9 h     dx  0.0000377-0.0000000 0.0013417 0.0009812 0.0000000-0.0005754
           dy  0.0000000-0.0000776-0.0000000-0.0000000-0.0036580-0.0000000
           dz -0.0001828 0.0000000-0.0006094 0.0002782-0.0000000 0.0008494
  10 h     dx -0.0000264 0.0000000 0.0000853-0.0009294-0.0000000 0.0008619
           dy -0.0000000-0.0008429 0.0000000 0.0000000 0.0001801 0.0000000
           dz  0.0001066 0.0000000 0.0000191-0.0008619 0.0000000 0.0004936
  11 h     dx -0.0005579 0.0000000-0.0005961-0.0000264 0.0000000-0.0001065
           dy -0.0000000-0.0000029 0.0000000 0.0000000-0.0008428 0.0000000
           dz  0.0005960 0.0000000 0.0003979-0.0000853 0.0000000 0.0000192

   ATOM              9 h                          10 h 
                  dx        dy        dz        dx        dy        dz
   9 h     dx  0.0575975
           dy -0.0000000 0.0251203
           dz  0.0000000-0.0000000 0.3606937
  10 h     dx  0.0009813 0.0000000-0.0002783 0.2821331
           dy -0.0000000-0.0036581-0.0000000-0.0000000 0.0248856
           dz  0.0005753-0.0000000 0.0008494-0.1308795 0.0000000 0.1327798
  11 h     dx  0.0000377-0.0000000 0.0001828 0.0006129-0.0000000-0.0003766
           dy -0.0000000-0.0000776 0.0000000-0.0000000-0.0039070-0.0000000
           dz -0.0013417-0.0000000-0.0006094 0.0005296 0.0000000 0.0014543

   ATOM             11 h 
                  dx        dy        dz
  11 h     dx  0.2816129
           dy -0.0000000 0.0228570
           dz  0.1335036-0.0000000 0.1322021
 

   *** projected hessian written onto $hessian (projected), file=<hessian> ***

 dipole moment in principle axis system (a.u.) :
     0.0000000943     0.0000000214     0.3377625223
 norm :  0.337762522333540     

 rotational constants b for rotations around axis of inertia
 and optical intensities for (1 <-- 0) transition

   b   :     0.2119523120     0.0998358536     0.1887362507   (cm**(-1))
   b   :        6354.1705        2993.0036        5658.1705     (MHz)
  int. :     0.0000000000     0.0000000000     0.1140835215     (a.u.)

   x   :     1.0000000000    -0.0000000014    -0.0000002133
   y   :     0.0000000014     1.0000000000     0.0000000138
   z   :     0.0000002133    -0.0000000138     1.0000000000

   ***  normal modes written onto $vibrational normal modes, file=<vib_normal_modes>  ***

 keyword $vibrational reduced masses missing in file <control>


   ***  vibrational spectroscopic data written onto$vibrational spectrum   
        file=<vibspectrum>  ***

          ---------------------------------------------------
          NORMAL MODES and VIBRATIONAL FREQUENCIES (cm**(-1))
          ---------------------------------------------------

 imaginary wave numbers indicate a negative curvature of the energy surface.
 zero frequency modes have no physical meaning except being generators of
 translations and rotations. each vibrational normal mode - given in terms of
 cartesian displacement vectors of all atoms - has been normalized to unity.
 to obtain mass-weigthed normal coordinates in a.u. divide the tabulated
 modes by sqrt(reduced mass * 1822.88853).
 band intensities or cross sections refer to independent non-degenerate normal
 modes, that is, the intensities of degenerate modes have yet to be added.
 dDIP/dQ is the normal mode derivative of the dipole moment.


       mode               1        2        3        4        5        6

     frequency           0.00     0.00     0.00     0.00     0.00     0.00

     symmetry                                                             

        IR                -        -        -        -        -        - 
|dDIP/dQ|   (a.u.)     0.0000   0.0000   0.0000   0.0000   0.0000   0.0000
intensity (km/mol)       0.00     0.00     0.00     0.00     0.00     0.00
intensity (  %   )       0.00     0.00     0.00     0.00     0.00     0.00
 
       RAMAN              -        -        -        -        -        - 
 
  1   c           x   0.05488  0.02902 -0.28022  0.04950 -0.00487 -0.12945
                  y   0.41540 -0.18441  0.06852  0.06010 -0.08776  0.00673
                  z  -0.07454 -0.20639 -0.13385  0.07968  0.18088 -0.04098
  2   c           x   0.08572  0.11442 -0.25068  0.01653 -0.07971  0.06562
                  y   0.25055 -0.22423 -0.04044 -0.22602 -0.10797 -0.00397
                  z  -0.07426 -0.20560 -0.13358  0.07937  0.18019 -0.03918
  3   c           x   0.10091  0.15647 -0.23613  0.00030 -0.11657  0.16167
                  y   0.08342 -0.06385 -0.09050 -0.37527  0.07165 -0.00889
                  z  -0.04758 -0.13174 -0.10803  0.05086  0.11545  0.12954
  4   c           x   0.08572  0.11442 -0.25068  0.01653 -0.07971  0.06562
                  y   0.07771  0.13763 -0.03321 -0.24285  0.27317 -0.00326
                  z  -0.02090 -0.05787 -0.08248  0.02234  0.05071  0.29826
  5   c           x   0.05488  0.02902 -0.28022  0.04950 -0.00487 -0.12945
                  y   0.24071  0.18130  0.07584  0.04309  0.29744  0.00745
                  z  -0.02062 -0.05708 -0.08221  0.02204  0.05003  0.30005
  6   c           x   0.04116 -0.00897 -0.29336  0.06416  0.02842 -0.21621
                  y   0.40096  0.01701  0.12066  0.17881  0.11473  0.01185
                  z  -0.04758 -0.13174 -0.10803  0.05086  0.11545  0.12954
  7   h           x   0.04269 -0.00473 -0.29189  0.06253  0.02471 -0.20652
                  y   0.54695 -0.30773  0.10879  0.17962 -0.22623  0.01068
                  z  -0.09515 -0.26347 -0.15360  0.10171  0.23091 -0.17135
  8   h           x   0.09778  0.14780 -0.23914  0.00365 -0.10897  0.14185
                  y   0.25359 -0.38102 -0.08585 -0.33126 -0.26463 -0.00843
                  z  -0.09497 -0.26296 -0.15342  0.10151  0.23046 -0.17018
  9   h           x   0.12485  0.22277 -0.21321 -0.02529 -0.17467  0.31309
                  y  -0.04382 -0.09626 -0.17511 -0.59729  0.05438 -0.01720
                  z  -0.04758 -0.13174 -0.10803  0.05086  0.11545  0.12954
 10   h           x   0.09778  0.14780 -0.23914  0.00365 -0.10897  0.14185
                  y  -0.05346  0.26179 -0.07299 -0.36117  0.41245 -0.00717
                  z  -0.00019 -0.00051 -0.06265  0.00020  0.00045  0.42926
 11   h           x   0.04269 -0.00473 -0.29189  0.06253  0.02471 -0.20652
                  y   0.23870  0.33760  0.12170  0.14960  0.45349  0.01195
                  z   0.00000  0.00000 -0.06247  0.00000  0.00000  0.43043

reduced mass(g/mol)     6.687    4.519    6.874    4.493    4.582    4.651


       mode               7        8        9       10       11       12

     frequency         391.29   419.50   593.77   612.47   668.25   724.21

     symmetry            a        a        a        a        a        a   

        IR               YES      YES      YES      YES      YES      YES
|dDIP/dQ|   (a.u.)     0.0000   0.0017   0.0006   0.0009   0.0031   0.0067
intensity (km/mol)       0.00     5.43     0.58     1.48    17.21    80.17
intensity (  %   )       0.00     6.78     0.72     1.84    21.46   100.00
 
       RAMAN             YES      YES      YES      YES      YES      YES
 
  1   c           x   0.00000 -0.00000 -0.23356 -0.22682  0.00000 -0.00000
                  y  -0.19761  0.11702 -0.00000  0.00000  0.13094 -0.07662
                  z   0.00000 -0.00000  0.23195 -0.01122  0.00000 -0.00000
  2   c           x  -0.00000 -0.00000  0.24231 -0.22417  0.00000 -0.00000
                  y   0.20095  0.12887  0.00000 -0.00000 -0.18099 -0.01972
                  z  -0.00000  0.00000  0.23059  0.03235 -0.00000  0.00000
  3   c           x  -0.00000  0.00000  0.15535 -0.00000  0.00000 -0.00000
                  y  -0.00000 -0.24651 -0.00000  0.00000  0.16147 -0.07378
                  z  -0.00000  0.00000  0.00000  0.35955 -0.00000  0.00000
  4   c           x  -0.00000  0.00000  0.24231  0.22417 -0.00000  0.00000
                  y  -0.20095  0.12888 -0.00000 -0.00000 -0.18099 -0.01972
                  z  -0.00000 -0.00000 -0.23059  0.03235 -0.00000  0.00000
  5   c           x   0.00000  0.00000 -0.23356  0.22682 -0.00000  0.00000
                  y   0.19761  0.11701 -0.00000  0.00000  0.13094 -0.07662
                  z   0.00000 -0.00000 -0.23195 -0.01122 -0.00000  0.00000
  6   c           x  -0.00000 -0.00000 -0.15164  0.00000 -0.00000  0.00000
                  y  -0.00000 -0.32497  0.00000 -0.00000 -0.17213  0.08453
                  z   0.00000  0.00000 -0.00000 -0.44004  0.00000 -0.00000
  7   h           x   0.00000 -0.00000 -0.33585 -0.03708 -0.00000 -0.00000
                  y  -0.46182  0.36202  0.00000  0.00000  0.50251  0.33407
                  z  -0.00000 -0.00000  0.05047  0.31188  0.00000 -0.00000
  8   h           x  -0.00000 -0.00000  0.32712 -0.05376 -0.00000 -0.00000
                  y   0.45530  0.36213  0.00000 -0.00000 -0.12103  0.51750
                  z  -0.00000 -0.00000  0.07855 -0.26376  0.00000  0.00000
  9   h           x  -0.00000 -0.00000 -0.23530 -0.00000  0.00000 -0.00000
                  y  -0.00001 -0.49863  0.00000  0.00000  0.55692  0.46489
                  z  -0.00000 -0.00000  0.00000  0.35937 -0.00000  0.00000
 10   h           x   0.00000  0.00000  0.32712  0.05376  0.00000  0.00000
                  y  -0.45528  0.36214 -0.00000 -0.00000 -0.12102  0.51747
                  z   0.00000 -0.00000 -0.07856 -0.26375  0.00000  0.00000
 11   h           x   0.00000  0.00000 -0.33585  0.03708  0.00000  0.00000
                  y   0.46183  0.36200  0.00000  0.00000  0.50251  0.33405
                  z   0.00000 -0.00000 -0.05047  0.31188  0.00000  0.00000

reduced mass(g/mol)     2.756    3.505    6.373    6.825    2.719    1.284


       mode              13       14       15       16       17       18

     frequency         826.12   900.79   975.61   986.18   995.87  1031.89

     symmetry            a        a        a        a        a        a   

        IR               YES      YES      YES      YES      YES      YES
|dDIP/dQ|   (a.u.)     0.0000   0.0005   0.0000   0.0007   0.0003   0.0006
intensity (km/mol)       0.00     0.52     0.00     0.79     0.11     0.66
intensity (  %   )       0.00     0.65     0.00     0.99     0.14     0.82
 
       RAMAN             YES      YES      YES      YES      YES      YES
 
  1   c           x   0.00000  0.00000 -0.00000 -0.15924  0.00000 -0.14174
                  y  -0.08427 -0.09192 -0.08464  0.00000  0.02770  0.00000
                  z  -0.00000 -0.00000  0.00000  0.15411 -0.00000  0.14275
  2   c           x   0.00000  0.00000 -0.00000  0.25734  0.00000 -0.23162
                  y  -0.06179  0.02620  0.10325 -0.00000 -0.08660 -0.00000
                  z   0.00000  0.00000  0.00000  0.16362  0.00000 -0.09170
  3   c           x  -0.00000 -0.00000  0.00000  0.00000 -0.00000  0.00000
                  y   0.00000  0.09687 -0.00001  0.00000  0.11143  0.00000
                  z   0.00000  0.00000 -0.00000 -0.32270  0.00000 -0.29717
  4   c           x   0.00000 -0.00000 -0.00000 -0.25735 -0.00000  0.23162
                  y   0.06179  0.02620 -0.10323  0.00000 -0.08662 -0.00000
                  z  -0.00000  0.00000  0.00000  0.16362 -0.00000 -0.09170
  5   c           x   0.00000 -0.00000  0.00000  0.15924 -0.00000  0.14174
                  y   0.08427 -0.09192  0.08464 -0.00000  0.02771 -0.00000
                  z   0.00000 -0.00000  0.00000  0.15410 -0.00000  0.14274
  6   c           x  -0.00000  0.00000  0.00000  0.00000 -0.00000  0.00000
                  y  -0.00000  0.02272 -0.00000 -0.00000  0.00651  0.00000
                  z   0.00000 -0.00000 -0.00000 -0.37415  0.00000  0.14230
  7   h           x  -0.00000 -0.00000 -0.00000 -0.11489 -0.00000 -0.01480
                  y   0.54335  0.53639  0.42711 -0.00000 -0.18805 -0.00000
                  z  -0.00000 -0.00000  0.00000  0.21925 -0.00000  0.39265
  8   h           x  -0.00000  0.00000  0.00000  0.17032  0.00000 -0.36007
                  y   0.44027 -0.17683 -0.54754  0.00000  0.50197  0.00000
                  z   0.00000 -0.00000  0.00000  0.30688 -0.00000  0.08337
  9   h           x  -0.00000  0.00000  0.00000  0.00001 -0.00000  0.00000
                  y  -0.00002 -0.57782  0.00007 -0.00000 -0.62944 -0.00000
                  z   0.00000 -0.00000 -0.00000 -0.32056  0.00000 -0.32312
 10   h           x  -0.00000 -0.00000 -0.00000 -0.17032 -0.00000  0.36007
                  y  -0.44029 -0.17681  0.54746  0.00000  0.50208  0.00000
                  z  -0.00000 -0.00000 -0.00000  0.30688 -0.00000  0.08338
 11   h           x  -0.00000  0.00000 -0.00000  0.11489  0.00000  0.01480
                  y  -0.54336  0.53638 -0.42709  0.00000 -0.18812 -0.00000
                  z  -0.00000 -0.00000 -0.00000  0.21925 -0.00000  0.39264

reduced mass(g/mol)     1.248    1.318    1.400    6.821    1.327    4.459


       mode              19       20       21       22       23       24

     frequency        1057.34  1079.85  1170.67  1173.43  1305.68  1350.31

     symmetry            a        a        a        a        a        a   

        IR               YES      YES      YES      YES      YES      YES
|dDIP/dQ|   (a.u.)     0.0022   0.0015   0.0002   0.0002   0.0001   0.0005
intensity (km/mol)       8.74     4.19     0.11     0.07     0.04     0.42
intensity (  %   )      10.90     5.23     0.13     0.09     0.04     0.52
 
       RAMAN             YES      YES      YES      YES      YES      YES
 
  1   c           x   0.16760  0.04049 -0.01401  0.01944  0.01732 -0.10782
                  y   0.00000 -0.00000  0.00000  0.00000 -0.00000 -0.00000
                  z  -0.01205 -0.10481  0.01259  0.03852  0.09407 -0.18628
  2   c           x  -0.05353  0.04860 -0.02937  0.04027 -0.02297 -0.14701
                  y  -0.00000  0.00000 -0.00000 -0.00000  0.00000 -0.00000
                  z   0.03185  0.07829  0.02458 -0.04475 -0.03114  0.24014
  3   c           x  -0.00000 -0.06857  0.06836 -0.00001 -0.06470  0.19187
                  y   0.00000 -0.00000  0.00000 -0.00000  0.00000 -0.00000
                  z  -0.02644 -0.00000  0.00000  0.00223  0.00000  0.00000
  4   c           x   0.05353  0.04860 -0.02938 -0.04025 -0.02297 -0.14702
                  y  -0.00000 -0.00000  0.00000  0.00000  0.00000  0.00000
                  z   0.03184 -0.07830 -0.02459 -0.04473  0.03114 -0.24014
  5   c           x  -0.16760  0.04049 -0.01402 -0.01944  0.01732 -0.10782
                  y   0.00000 -0.00000 -0.00000 -0.00000  0.00000  0.00000
                  z  -0.01205  0.10481 -0.01257  0.03852 -0.09407  0.18628
  6   c           x  -0.00000 -0.02786  0.01216 -0.00000  0.09404  0.26313
                  y  -0.00000 -0.00000 -0.00000 -0.00000 -0.00000 -0.00000
                  z  -0.12888  0.00000  0.00000  0.01670  0.00000 -0.00000
  7   h           x   0.39578 -0.17119 -0.09542  0.23408 -0.33087 -0.00270
                  y  -0.00000  0.00000 -0.00000  0.00000 -0.00000 -0.00000
                  z   0.36147 -0.47941 -0.12469  0.40608 -0.49274 -0.01402
  8   h           x  -0.23241 -0.08460 -0.23639  0.27476  0.13449  0.27582
                  y   0.00000 -0.00000  0.00000  0.00000 -0.00000  0.00000
                  z   0.34275  0.32076  0.37745 -0.44643 -0.31100 -0.48943
  9   h           x  -0.00000 -0.46250  0.73844 -0.00014  0.17758  0.10531
                  y  -0.00000  0.00000 -0.00000 -0.00000 -0.00000  0.00000
                  z  -0.02936 -0.00000  0.00000  0.00314 -0.00000  0.00000
 10   h           x   0.23241 -0.08461 -0.23650 -0.27467  0.13449  0.27582
                  y   0.00000 -0.00000 -0.00000  0.00000  0.00000 -0.00000
                  z   0.34274 -0.32077 -0.37763 -0.44628  0.31101  0.48943
 11   h           x  -0.39578 -0.17119 -0.09550 -0.23405 -0.33087 -0.00270
                  y  -0.00000  0.00000  0.00000  0.00000 -0.00000 -0.00000
                  z   0.36149  0.47942  0.12485  0.40603  0.49273  0.01402

reduced mass(g/mol)     1.905    1.533    1.101    1.132    1.386    4.939


       mode              25       26       27       28       29       30

     frequency        1470.18  1478.23  1596.44  1655.17  3176.37  3182.95

     symmetry            a        a        a        a        a        a   

        IR               YES      YES      YES      YES      YES      YES
|dDIP/dQ|   (a.u.)     0.0018   0.0022   0.0008   0.0010   0.0006   0.0014
intensity (km/mol)       5.55     8.22     1.18     1.88     0.59     3.47
intensity (  %   )       6.93    10.26     1.48     2.35     0.74     4.32
 
       RAMAN             YES      YES      YES      YES      YES      YES
 
  1   c           x  -0.07375 -0.13235 -0.03969  0.23817 -0.02034  0.02913
                  y  -0.00000 -0.00000 -0.00000  0.00000 -0.00000  0.00000
                  z   0.04554 -0.13232 -0.23313  0.11307  0.01079 -0.01577
  2   c           x  -0.04211  0.09603 -0.12077 -0.21269  0.04191 -0.04337
                  y  -0.00000  0.00000 -0.00000  0.00000  0.00000 -0.00000
                  z  -0.11115 -0.03688  0.31471  0.09522  0.02408 -0.02432
  3   c           x   0.19741 -0.00000  0.00000  0.37904  0.00000  0.00281
                  y   0.00000 -0.00000  0.00000 -0.00000  0.00000  0.00000
                  z   0.00000  0.06939 -0.18822  0.00000 -0.03526 -0.00000
  4   c           x  -0.04211 -0.09603  0.12077 -0.21269 -0.04191 -0.04336
                  y  -0.00000  0.00000 -0.00000 -0.00000  0.00000  0.00000
                  z   0.11115 -0.03688  0.31471 -0.09522  0.02408  0.02432
  5   c           x  -0.07375  0.13235  0.03969  0.23817  0.02034  0.02913
                  y   0.00000 -0.00000  0.00000 -0.00000 -0.00000 -0.00000
                  z  -0.04555 -0.13232 -0.23313 -0.11307  0.01079  0.01577
  6   c           x   0.16812 -0.00000 -0.00000 -0.39223  0.00000 -0.00061
                  y  -0.00000  0.00000  0.00000  0.00000  0.00000  0.00000
                  z   0.00000  0.11643  0.09595 -0.00000  0.00098 -0.00000
  7   h           x  -0.14847  0.20822  0.16627  0.01818  0.24076 -0.34457
                  y  -0.00000  0.00000  0.00000  0.00000  0.00000 -0.00000
                  z  -0.05414  0.45918  0.08662 -0.27939 -0.13944  0.19965
  8   h           x  -0.27518 -0.14836  0.29762 -0.03549 -0.49391  0.50270
                  y  -0.00000  0.00000  0.00000 -0.00000 -0.00000  0.00000
                  z   0.25442  0.40644 -0.40186 -0.24791 -0.28709  0.29181
  9   h           x  -0.74741  0.00000  0.00000 -0.41550 -0.00000 -0.00330
                  y   0.00000 -0.00000  0.00000  0.00000 -0.00000 -0.00000
                  z   0.00000  0.08719 -0.21405  0.00000  0.43062 -0.00000
 10   h           x  -0.27518  0.14836 -0.29762 -0.03548  0.49394  0.50268
                  y  -0.00000  0.00000 -0.00000  0.00000 -0.00000 -0.00000
                  z  -0.25442  0.40644 -0.40186  0.24791 -0.28711 -0.29179
 11   h           x  -0.14848 -0.20822 -0.16627  0.01818 -0.24076 -0.34455
                  y   0.00000  0.00000  0.00000 -0.00000  0.00000  0.00000
                  z   0.05414  0.45918  0.08662  0.27939 -0.13944 -0.19964

reduced mass(g/mol)     2.224    2.214    5.230    7.006    1.085    1.087


       mode              31       32       33

     frequency        3195.86  3198.52  3208.44

     symmetry            a        a        a   

        IR               YES      YES      YES
|dDIP/dQ|   (a.u.)     0.0013   0.0028   0.0020
intensity (km/mol)       2.85    13.80     7.37
intensity (  %   )       3.55    17.21     9.19
 
       RAMAN             YES      YES      YES
 
  1   c           x   0.04526 -0.04331 -0.01868
                  y   0.00000 -0.00000 -0.00000
                  z  -0.02654  0.02703  0.01275
  2   c           x   0.00640 -0.03029 -0.03275
                  y   0.00000 -0.00000 -0.00000
                  z   0.00704 -0.01938 -0.01701
  3   c           x  -0.00000  0.00326 -0.00000
                  y   0.00000 -0.00000  0.00000
                  z  -0.04385 -0.00001 -0.06664
  4   c           x  -0.00639 -0.03029  0.03275
                  y  -0.00000  0.00000 -0.00000
                  z   0.00704  0.01938 -0.01701
  5   c           x  -0.04525 -0.04332  0.01868
                  y   0.00000  0.00000 -0.00000
                  z  -0.02653 -0.02703  0.01275
  6   c           x  -0.00000  0.00267  0.00000
                  y  -0.00000 -0.00000  0.00000
                  z  -0.00153 -0.00000  0.00083
  7   h           x  -0.51608  0.50143  0.21221
                  y  -0.00000  0.00000  0.00000
                  z   0.30232 -0.29534 -0.12673
  8   h           x  -0.08498  0.34225  0.34575
                  y  -0.00000  0.00000  0.00000
                  z  -0.05311  0.20052  0.19815
  9   h           x   0.00000 -0.00405  0.00000
                  y  -0.00000 -0.00000 -0.00000
                  z   0.50696  0.00006  0.74296
 10   h           x   0.08489  0.34225 -0.34576
                  y  -0.00000 -0.00000  0.00000
                  z  -0.05306 -0.20052  0.19816
 11   h           x   0.51597  0.50155 -0.21222
                  y  -0.00000 -0.00000  0.00000
                  z   0.30225  0.29541 -0.12673

reduced mass(g/mol)     1.092    1.094    1.098
 

         **************************************************************
         *                                                            *
         *  zero point VIBRATIONAL energy  :      0.0875395  Hartree  *
         *    SCF-energy                   :   -231.3577415           *
         *    SCF + E(vib0)                :   -231.2702020           *
         *                                                            *
         **************************************************************




 time elapsed for vibrational analysis     0.12 sec


    ------------------------------------------------------------------------
         total  cpu-time :  6 hours 58 minutes and 52 seconds
         total wall-time : 52 minutes and 47 seconds
    ------------------------------------------------------------------------

   ****  force : all done  ****


    2017-09-21 16:51:54.857 

aoforce ended normally 
