
 Primary working directories    : /state/partition2/vallet/656108.phlam-s-sakura/molpro.Ydrkv3HTfU
 Secondary working directories  : /state/partition2/vallet/656108.phlam-s-sakura/molpro.Ydrkv3HTfU
 Wavefunction directory         : /home/vallet/wfu/
 Main file repository           : /state/partition2/vallet/656108.phlam-s-sakura/molpro.Ydrkv3HTfU/

 id        : lill

 Nodes      nprocs
 u-0-0.local    4

 Using customized tuning parameters: mindgm=1; mindgv=20; mindgc=4; mindgr=1; noblas=0; minvec=7
 default implementation of scratch files=sf  


 Variables initialized (934), CPU time= 0.00 sec
  memory, 9000,m;
  file, 1, C6H5SO2.CCSD-T-CBS.int, new;
  file, 2, C6H5SO2.CCSD-T-CBS.wfu, old;
 
 geometry={
 14
 Energy = -779.8998044460
 C     0.1215577   -0.1476652   -0.0118528
 C    -0.1002980   -0.7778853   -1.2278689
 C    -0.2184238   -2.1606394   -1.2860790
 C    -0.1126922   -2.9186628   -0.1257298
 C     0.1006086   -2.2853574    1.0932416
 C     0.2179130   -0.9025314    1.1484708
 H    -0.2066866   -0.1587428   -2.1126560
 H    -0.4033484   -2.6516669   -2.2368529
 H    -0.2062157   -3.9987747   -0.1697407
 H     0.1652842   -2.8739944    2.0035095
 H     0.3556378   -0.3801275    2.0895072
 S     0.3709117    1.6853151    0.0511224
 O    -0.4932257    2.1393067   -1.0979180
 O    -0.1923660    2.0124158    1.4108605
 }
 
  charge=-1;
  spin=0;
 
  basis={
    default,aug-cc-pVTZ;
  }
  {cfit,basis_coul=mycoul,basis_exch=myexch}
 
  {rhf;
  }
  ccsd(t);
 
  ehf(1) = ENERGR(1);
  ecor_ccsdt(1) = ENERGY(1)-ENERGR(1);
  ecor_mp2(1) = EMP2(1)-ENERGR(1);
 
 basis={
   default,aug-cc-pVQZ;
 }
 {cfit,basis_coul=mycoul,basis_exch=myexch}
 
 {rhf;
 }
 ccsd(t);
 ehf(2) = ENERGR(1);
 ecor_ccsdt(2) = ENERGY(1)-ENERGR(1);
 ecor_mp2(2) = EMP2(1)-ENERGR(1);
 
 extrapolate, basis=avtz:avqz, eref=ehf, ecorr=ecor_ccsdt, method_r=km, method_c=LH4;
 extrapolate, basis=avtz:avqz, eref=ehf, ecorr=ecor_mp2, method_r=km, method_c=LH4;
 Commands  initialized (763), CPU time= 0.01 sec, 617 directives.
 Default parameters read. Elapsed time= 0.09 sec

 Checking input...
 Passed
1


                                         ***  PROGRAM SYSTEM MOLPRO  ***
                                       Copyright, TTI GmbH Stuttgart, 2015
                                    Version 2019.2 linked Oct 25 2019 22:50:27


 **********************************************************************************************************************************
 LABEL *                                                                                 
  64 bit mpp version                                                                     DATE: 13-Dec-19          TIME: 13:05:25  
 **********************************************************************************************************************************

 SHA1:             8dbd9ae1082e4ce945b0f27595c9eb2d4aa09004
 **********************************************************************************************************************************

 Variable memory set to 9000000000 words,  buffer space 



 Permanent file  1  c6h5so2.ccsd-t-cbs.int           assigned.  Implementation=df  
 Permanent file  2  c6h5so2.ccsd-t-cbs.wfu           assigned.  Implementation=df    Size= 38.82 MB


 PROGRAM * RESTART 


 Reading variables from file 2

 _FNUC           =      0.00000000
 _BASIS          =    AUG-CC-PVQZ
 _NELEC          =     73.00000000
 _PROGRAM        =    RHF-SCF
 _DMX            =      0.81417326
 _DMY            =     -1.81593920
 _DMZ            =     -0.18770652
 _DMX_SCF        =      0.81417326
 _DMY_SCF        =     -1.81593920
 _DMZ_SCF        =     -0.18770652
 _HOMO           =     37.10000000
 _EHOMO          =     -0.43594157
 _LUMO           =     38.10000000
 _ELUMO          =      0.01889088
 _ENERGY         =   -777.44927089
 _ENERGY_METHOD  =    CCSD(T)
 _ENERGY_BASIS   =    aug-cc-pVQZ
 _ENUC           =    499.64301973
 _IPROC_MPP      =      0.00000000
 _IPROC_MPPX     =      0.00000000
 _NPROC_MPP      =      6.00000000
 _NPROC_MPPX     =      6.00000000
 _ORBITAL        =   2100.20000000
 _STATUS         =      1.00000000
 _DATE           =    02-Dec-19
 _LASTORB        =    RHF
 _OUTPUT         =    /home/vallet/John-methylsulfonyl/Units/C6H5SO2-m1/geom-C6H5SO2-m1/optg-freq-pbe0/CCSD-T/C6H5SO2-m1.CCSD-T-CBS.xml
 _PGROUP         =    C1  
 _TIME           =    14:43:04
 EHF             =   -777.51703258
 ECOR_CCSDT      =     -1.74977694
 ECOR_MP2        =     -1.65059794

 Geometry written to block  1 of record 700


 **********************************************************************************************************************************
 DATASETS  * FILE   NREC   LENGTH (MB)   RECORD NAMES
              1       2       12.05       500      700   
                                          VAR     GEOM   

              2       6       40.71       500      610      700     1000      520     2100   
                                          VAR    BASINP    GEOM     BASIS   MCVARS     RHF  

 PROGRAMS   *        TOTAL   RESTART
 CPU TIMES  *         0.25      0.10
 REAL TIME  *         0.71 SEC
 DISK USED  *        52.76 MB (local),      211.04 MB (total)
 **********************************************************************************************************************************

Geometry recognized as XYZ

 SETTING CHARGE         =        -1.00000000                                  
 SETTING SPIN           =     0.00000000D+00                                  
 SETTING BASIS          =    AUG-CC-PVTZ


 Recomputing integrals since basis changed


 Using spherical harmonics

 Library entry C      S aug-cc-pVTZ          selected for orbital group  1
 Library entry C      P aug-cc-pVTZ          selected for orbital group  1
 Library entry C      D aug-cc-pVTZ          selected for orbital group  1
 Library entry C      F aug-cc-pVTZ          selected for orbital group  1
 Library entry H      S aug-cc-pVTZ          selected for orbital group  2
 Library entry H      P aug-cc-pVTZ          selected for orbital group  2
 Library entry H      D aug-cc-pVTZ          selected for orbital group  2
 Library entry S      S aug-cc-pVTZ          selected for orbital group  3
 Library entry S      P aug-cc-pVTZ          selected for orbital group  3
 Library entry S      D aug-cc-pVTZ          selected for orbital group  3
 Library entry S      F aug-cc-pVTZ          selected for orbital group  3
 Library entry O      S aug-cc-pVTZ          selected for orbital group  4
 Library entry O      P aug-cc-pVTZ          selected for orbital group  4
 Library entry O      D aug-cc-pVTZ          selected for orbital group  4
 Library entry O      F aug-cc-pVTZ          selected for orbital group  4


 PROGRAM * SEWARD (Integral evaluation for generally contracted gaussian basis sets)     Author: Roland Lindh, 1990

 Geometry written to block  1 of record 700


 Point group  C1  



 ATOMIC COORDINATES

 NR  ATOM    CHARGE       X              Y              Z

   1  C       6.00    0.229710761   -0.279046786   -0.022398546
   2  C       6.00   -0.189535751   -1.469990173   -2.320335938
   3  C       6.00   -0.412761161   -4.083016720   -2.430337085
   4  C       6.00   -0.212957394   -5.515473342   -0.237594888
   5  C       6.00    0.190122700   -4.318699583    2.065927212
   6  C       6.00    0.411795889   -1.705537165    2.170295274
   7  H       1.00   -0.390581068   -0.299980416   -3.992341235
   8  H       1.00   -0.762218009   -5.010924215   -4.227039362
   9  H       1.00   -0.389691196   -7.556589017   -0.320763435
  10  H       1.00    0.312341871   -5.431062300    3.786084243
  11  H       1.00    0.672058042   -0.718336867    3.948596343
  12  S      16.00    0.700921529    3.184783973    0.096607335
  13  O       8.00   -0.932061491    4.042703759   -2.074764327
  14  O       8.00   -0.363519056    3.802914711    2.666139945

 Bond lengths in Bohr (Angstrom)

  1- 2  2.621951572   1- 6  2.622200599   1-12  3.497760071   2- 3  2.624850009   2- 7  2.050595954
       ( 1.387477020)       ( 1.387608800)       ( 1.850934919)       ( 1.389010807)       ( 1.085128648)

 3-4  2.626779751  3-8  2.052138270  4-5  2.626966893  4-9  2.050440207  5-6  2.624623691
     ( 1.390031982)     ( 1.085944806)     ( 1.390131014)     ( 1.085046230)     ( 1.388891044)

  5-10  2.052127811   6-11  2.050525666  12-13  2.849125269  12-14  2.849143240
       ( 1.085939271)       ( 1.085091453)       ( 1.507692163)       ( 1.507701673)

 Bond angles

  1- 2- 3  120.16561911   1- 2- 7  118.10737507   1- 6- 5  120.16640185   1- 6-11  118.17067823

  1-12-13  101.24777314   1-12-14  101.25655365   2- 1- 6  119.79333320   2- 1-12  120.07771904

  2-3-4  120.09398675   2-3-8  120.08621398   3-2-7  121.70138743   3-4-5  119.68419180

  3- 4- 9  120.16108123   4- 3- 8  119.81708521   4- 5- 6  120.09341483   4- 5-10  119.81610016

  5- 4- 9  120.15184174   5- 6-11  121.63735361   6- 1-12  120.06106555   6- 5-10  120.08762766

 13-12-14  114.07093659

 NUCLEAR CHARGE:                   73
 NUMBER OF PRIMITIVE AOS:         755
 NUMBER OF SYMMETRY AOS:          664
 NUMBER OF CONTRACTIONS:          533   (  533A   )
 NUMBER OF CORE ORBITALS:          13   (   13A   )
 NUMBER OF VALENCE ORBITALS:       41   (   41A   )


 NUCLEAR REPULSION ENERGY  499.64301973


 Eigenvalues of metric

         1 0.601E-06 0.136E-05 0.164E-05 0.174E-05 0.374E-05 0.428E-05 0.548E-05 0.575E-05


 Contracted 2-electron integrals neglected if value below      1.0D-14
 AO integral compression algorithm  1   Integral accuracy      1.0D-14

     54729.114 MB (compressed) written to integral file ( 63.0%)

     Node minimum: 13557.301 MB, node maximum: 13814.727 MB


 NUMBER OF SORTED TWO-ELECTRON INTEGRALS: 2531517012.     BUFFER LENGTH:  32768
 NUMBER OF SEGMENTS:  80  SEGMENT LENGTH:   31999984      RECORD LENGTH: 262144

 Memory used in sort:      32.29 MW

 SORT1 READ 10854635775. AND WROTE  2325798902. INTEGRALS IN  13348 RECORDS. CPU TIME:   228.53 SEC, REAL TIME:   272.02 SEC
 SORT2 READ  9299891381. AND WROTE 10126281516. INTEGRALS IN 210476 RECORDS. CPU TIME:    67.19 SEC, REAL TIME:    95.60 SEC

 Node minimum:  2531517012.  Node maximum:  2531623746. integrals

 OPERATOR DM      FOR CENTER  0  COORDINATES:    0.000000    0.000000    0.000000


 **********************************************************************************************************************************
 DATASETS  * FILE   NREC   LENGTH (MB)   RECORD NAMES
              1      18       40.60       500      700      610      900      950      970     1001      129      960     1100   
                                          VAR     GEOM    BASINP   SYMINP    ZMAT    AOBASIS   BASIS     P2S    ABASIS      S 
                                         1400     1410     1200     1210     1080     1600     1650     1700   
                                           T        V       H0       H01     AOSYM     SMH    MOLCAS    OPER   

              2       7       51.73       500      610      700     1000      520     2100     1001   
                                          VAR    BASINP    GEOM     BASIS   MCVARS     RHF     BASIS   

 PROGRAMS   *        TOTAL       INT   RESTART
 CPU TIMES  *       415.77    415.51      0.10
 REAL TIME  *       510.16 SEC
 DISK USED  *        92.46 MB (local),      166.36 GB (total)
 GA USED    *         0.00 MB       (max)       0.00 MB       (current)
 **********************************************************************************************************************************


 PROGRAM * RHF-SCF (CLOSED SHELL)       Authors: W. Meyer, H.-J. Werner


 NUMBER OF ELECTRONS:      37+   37-    SPACE SYMMETRY=1    SPIN SYMMETRY: Singlet 
 CONVERGENCE THRESHOLDS:    1.00E-05 (Density)    1.00E-07 (Energy)
 MAX. NUMBER OF ITERATIONS:       60
 INTERPOLATION TYPE:            DIIS
 INTERPOLATION STEPS:              2 (START)      1 (STEP)
 LEVEL SHIFTS:                  0.00 (CLOSED)  0.00 (OPEN) 



 Molecular orbitals read from record     2100.2  Type=RHF/CANONICAL (state 1.1)

 Present basis size:      533
 Previous basis size:     954
 Previous occupation:      37
 Previous closed-shells:   36
 Previous core-orbitals:   13
 Present occupation:       37
 Present closed-shells:    36
 Present core-orbitals:    13
 Wavefunction symmetry:    1   Doublet 

 Orbital overlap <old|new>:  < 1.1| 1.1> = 1.000000   < 2.1| 2.1> = 0.999999   < 3.1| 3.1> = 0.999999   < 4.1| 4.1> = 0.999999
                             < 5.1| 5.1> = 0.999999   < 6.1| 6.1> = 0.999999   < 7.1| 7.1> = 0.999999   < 8.1| 8.1> = 0.999999
                             < 9.1| 9.1> = 0.999999   <10.1|10.1> = 1.000000   <11.1|11.1> = 0.999998   <12.1|12.1> = 0.999998
                             <13.1|13.1> = 0.999998   <14.1|14.1> = 0.999979   <15.1|15.1> = 0.999971   <16.1|16.1> = 0.999987
                             <17.1|17.1> = 0.999988   <18.1|18.1> = 0.999991   <19.1|19.1> = 0.999986   <20.1|20.1> = 0.999987
                             <21.1|21.1> = 0.999987   <22.1|22.1> = 0.999982   <23.1|23.1> = 0.999978   <24.1|24.1> = 0.999972
                             <25.1|25.1> = 0.999976   <26.1|26.1> = 0.999971   <27.1|27.1> = 0.999957   <28.1|28.1> = 0.999986
                             <29.1|29.1> = 0.999975   <30.1|30.1> = 0.999968   <31.1|31.1> = 0.999983   <32.1|32.1> = 0.999937
                             <33.1|33.1> = 0.999927   <34.1|34.1> = 0.999935   <35.1|35.1> = 0.999974   <36.1|36.1> = 0.999980
                             <37.1|37.1> = 0.999936


 Molecular orbital dump at record        2101.2

 ITERATION    DDIFF          GRAD             ENERGY        2-EL.EN.            DIPOLE MOMENTS         DIIS   ORB.
    1      0.000D+00      0.000D+00      -777.45251225   1601.057769    0.23323   -5.08250   -0.31076    0    start
    2      0.000D+00      0.155D-02      -777.50516482   1588.272592    0.69305   -3.18607   -0.26197    1    diag
    3      0.103D-01      0.831D-03      -777.51596700   1591.690986    0.60260   -3.46030   -0.26891    2    diag
    4      0.196D-02      0.148D-03      -777.51672211   1591.564521    0.59157   -3.29958   -0.25771    3    diag
    5      0.545D-03      0.794D-04      -777.51695635   1591.555397    0.59713   -3.27880   -0.25824    4    diag
    6      0.255D-03      0.305D-04      -777.51701820   1591.526733    0.60064   -3.24374   -0.25639    5    diag
    7      0.153D-03      0.130D-04      -777.51702843   1591.543998    0.59805   -3.23868   -0.25604    6    diag
    8      0.708D-04      0.658D-05      -777.51703167   1591.540485    0.59941   -3.23622   -0.25599    7    orth
    9      0.468D-04      0.276D-05      -777.51703244   1591.539835    0.59926   -3.23564   -0.25597    8    diag
   10      0.214D-04      0.119D-05      -777.51703257   1591.541476    0.59931   -3.23566   -0.25596    9    diag
   11      0.542D-05      0.433D-06      -777.51703259   1591.540587    0.59927   -3.23560   -0.25596    9    diag
   12      0.380D-05      0.123D-06      -777.51703259   1591.540705    0.59927   -3.23559   -0.25595    0    orth

 Final occupancy:  37

 !RHF STATE  1.1 Energy              -777.517032587702
 Nuclear energy                       499.64301973
 One-electron energy                -2072.93040460
 Two-electron energy                  795.77035229
 Virial quotient                       -1.00083353
 !RHF STATE  1.1 Dipole moment          0.59927342    -3.23558624    -0.25595421
 Dipole moment /Debye                   1.52310135    -8.22350127    -0.65052810

 Orbital energies:

         1.1          2.1          3.1          4.1          5.1          6.1          7.1          8.1          9.1         10.1
    -91.906009   -20.318799   -20.318716   -11.118149   -11.115713   -11.115382   -11.104124   -11.103789   -11.100254    -8.882971

        11.1         12.1         13.1         14.1         15.1         16.1         17.1         18.1         19.1         20.1
     -6.565547    -6.565053    -6.563324    -1.184502    -1.082631    -1.029026    -0.892712    -0.891888    -0.716699    -0.701575

        21.1         22.1         23.1         24.1         25.1         26.1         27.1         28.1         29.1         30.1
     -0.634468    -0.571355    -0.500792    -0.500549    -0.463862    -0.459668    -0.411701    -0.399607    -0.382057    -0.374169

        31.1         32.1         33.1         34.1         35.1         36.1         37.1         38.1         39.1
     -0.365235    -0.273938    -0.263279    -0.241808    -0.215233    -0.207530    -0.152737     0.099951     0.107083


 HOMO     37.1    -0.152737 =      -4.1562eV
 LUMO     38.1     0.099951 =       2.7198eV
 LUMO-HOMO         0.252688 =       6.8760eV


 **********************************************************************************************************************************
 DATASETS  * FILE   NREC   LENGTH (MB)   RECORD NAMES
              1      18       40.60       500      700      610      900      950      970     1001      129      960     1100   
                                          VAR     GEOM    BASINP   SYMINP    ZMAT    AOBASIS   BASIS     P2S    ABASIS      S 
                                         1400     1410     1200     1210     1080     1600     1650     1700   
                                           T        V       H0       H01     AOSYM     SMH    MOLCAS    OPER   

              2       8       59.92       500      610      700     1000      520     2100     1001     2101   
                                          VAR    BASINP    GEOM     BASIS   MCVARS     RHF     BASIS     RHF  

 PROGRAMS   *        TOTAL   RHF-SCF       INT   RESTART
 CPU TIMES  *       870.86    455.09    415.51      0.10
 REAL TIME  *      1011.41 SEC
 DISK USED  *       121.14 MB (local),      166.48 GB (total)
 SF USED    *         1.14 MB
 GA USED    *         0.00 MB       (max)       0.00 MB       (current)
 **********************************************************************************************************************************


 PROGRAM * CCSD (Closed-shell coupled cluster)     Authors: C. Hampel, H.-J. Werner, 1991, M. Deegan, P.J. Knowles, 1992


 Convergence thresholds:  THRVAR = 1.00D-08  THRDEN = 1.00D-06

 CCSD(T)     terms to be evaluated (factor= 1.000)


 Number of core orbitals:          13 (  13 )
 Number of closed-shell orbitals:  24 (  24 )
 Number of external orbitals:     496 ( 496 )

 Molecular orbitals read from record     2101.2  Type=RHF/CANONICAL (state 1.1)

 Number of N-1 electron functions:              24
 Number of N-2 electron functions:             300
 Number of singly external CSFs:             11904
 Number of doubly external CSFs:          70858560
 Total number of CSFs:                    70870465

 Length of J-op  integral file:               0.00 MB
 Length of K-op  integral file:              19.51 MB
 Length of 3-ext integral record:             0.00 MB

 Memory could be reduced to 3399.80 Mwords without degradation in triples

 Integral transformation finished. Total CPU:1283.77 sec, npass=  1  Memory used:2039.03 MW

 Reference energy:                   -777.51703259

 MP2 singlet pair energy:              -1.00283730
 MP2 triplet pair energy:              -0.64776055
 MP2 correlation energy:               -1.65059784
 MP2 total energy:                   -779.16763043

 SCS-MP2 correlation energy:           -1.60645576   (PS=  1.200000  PT=  0.333333)
 SCS-MP2 total energy:               -779.12348835

 ITER.      SQ.NORM     CORR.ENERGY   TOTAL ENERGY   ENERGY CHANGE        DEN1      VAR(S)    VAR(P)  DIIS     TIME  TIME/IT
   1      1.50870874    -1.65778874  -779.17482133    -0.00719090     0.04423932  0.13D-01  0.14D-01  1  1  2413.35  1133.10
   2      1.54637263    -1.65805219  -779.17508478    -0.00026345    -0.04121104  0.22D-03  0.16D-02  2  2  3511.29  1123.11
   3      1.56310172    -1.65861604  -779.17564863    -0.00056385    -0.00734125  0.35D-03  0.12D-03  3  3  4671.08  1140.44
   4      1.57003175    -1.65831336  -779.17534595     0.00030268    -0.00235825  0.37D-04  0.30D-04  4  4  5815.60  1145.63
   5      1.57423694    -1.65836448  -779.17539706    -0.00005111    -0.00085056  0.11D-04  0.29D-05  5  5  6907.28  1137.78
   6      1.57548039    -1.65832303  -779.17535562     0.00004144    -0.00014337  0.20D-05  0.66D-06  6  6  8010.72  1134.74
   7      1.57589266    -1.65830228  -779.17533487     0.00002076    -0.00001311  0.61D-06  0.17D-06  6  1  9116.72  1133.19
   8      1.57605820    -1.65830088  -779.17533347     0.00000140    -0.00002664  0.15D-06  0.44D-07  6  2 10270.66  1138.11
   9      1.57610243    -1.65829931  -779.17533190     0.00000157     0.00000903  0.40D-07  0.12D-07  6  3 11546.83  1155.44
  10      1.57613600    -1.65829682  -779.17532941     0.00000248    -0.00000538  0.12D-07  0.31D-08  6  4 12718.88  1158.61
  11      1.57614075    -1.65829760  -779.17533019    -0.00000078     0.00000145  0.39D-08  0.97D-09  6  1 13902.34  1162.19
  12      1.57614679    -1.65829730  -779.17532989     0.00000030    -0.00000060  0.99D-09  0.26D-09  6  5 15100.72  1166.69

 Norm of t1 vector:      0.15958243      S-energy:     0.00000068      T1 diagnostic:  0.01628731
                                                                       D1 diagnostic:  0.05515877

   CPU time for triples:   2292.09 sec for i =  1 -  5 / 24 (~   1.2 % done)
   CPU time for triples:   2918.30 sec for i =  6 -  7 / 24 (~   3.0 % done)
   CPU time for triples:   2239.88 sec for i =  8 -  8 / 24 (~   4.3 % done)
   CPU time for triples:   5056.31 sec for i =  9 - 15 / 24 (~  25.8 % done)
   CPU time for triples:   4081.51 sec for i = 16 - 17 / 24 (~  37.0 % done)
   CPU time for triples:   2165.51 sec for i = 18 - 18 / 24 (~  43.6 % done)
   CPU time for triples:   1901.36 sec for i = 19 - 19 / 24 (~  50.9 % done)
   CPU time for triples:   3943.83 sec for i = 20 - 20 / 24 (~  59.0 % done)
   CPU time for triples:   5043.53 sec for i = 21 - 21 / 24 (~  67.9 % done)
   CPU time for triples:   4350.07 sec for i = 22 - 22 / 24 (~  77.7 % done)
   CPU time for triples:   4590.20 sec for i = 23 - 23 / 24 (~  88.4 % done)
   CPU time for triples:   4141.68 sec for i = 24 - 24 / 24 (  100.0 % done)

 Total CPU time for triples:  42771.77 sec


 RESULTS
 =======

  Reference energy                   -777.517032587705
  CCSD singlet pair energy             -1.087214343120
  CCSD triplet pair energy             -0.571083640408
  CCSD correlation energy              -1.658297299234

  Triples (T) contribution             -0.091478753936
  Total correlation energy             -1.749776053170

  CCSD total energy                  -779.175329886939
  CCSD[T] energy                     -779.270684456617
  CCSD-T energy                      -779.265376530275
 !CCSD(T) total energy               -779.266808640875

 Timing summary (sec):

 STEP                 CPU(USER)    SYS     CPU(TOT)    WALL
 Transformation       1290.02     42.72   1332.74   1332.50
 CCSD iterations     13811.92    191.70  14003.62  14000.30
 Triples             42771.77    329.63  43101.40  43087.46

 Program statistics:

 Available memory in ccsd:              8999996859
 Min. memory needed in ccsd:             161756142
 Max. memory used in ccsd:               228903510
 Max. memory used in cckext:             173405201 (12 integral passes)



 **********************************************************************************************************************************
 DATASETS  * FILE   NREC   LENGTH (MB)   RECORD NAMES
              1      19    12806.43       500      700      610      900      950      970     1001      129      960     1100   
                                          VAR     GEOM    BASINP   SYMINP    ZMAT    AOBASIS   BASIS     P2S    ABASIS      S 
                                         1400     1410     1200     1210     1080     1600     1650     1700     1380   
                                           T        V       H0       H01     AOSYM     SMH    MOLCAS    OPER     JKOP   

              2       8       59.92       500      610      700     1000      520     2100     1001     2101   
                                          VAR    BASINP    GEOM     BASIS   MCVARS     RHF     BASIS     RHF  

 PROGRAMS   *        TOTAL   CCSD(T)   RHF-SCF       INT   RESTART
 CPU TIMES  *     58744.64  57873.77    455.09    415.51      0.10
 REAL TIME  *     59437.04 SEC
 DISK USED  *        19.97 GB (local),      224.56 GB (total)
 SF USED    *        19.09 GB
 GA USED    *         0.00 MB       (max)       0.00 MB       (current)
 **********************************************************************************************************************************
 SETTING EHF(1)         =      -777.51703259  AU                              
 SETTING ECOR_CCSDT(1)  =        -1.74977605  AU                              
 SETTING ECOR_MP2(1)    =        -1.65059784  AU                              
 SETTING BASIS          =    AUG-CC-PVQZ


 Recomputing integrals since basis changed


 Using spherical harmonics

 Library entry C      S aug-cc-pVQZ          selected for orbital group  1
 Library entry C      P aug-cc-pVQZ          selected for orbital group  1
 Library entry C      D aug-cc-pVQZ          selected for orbital group  1
 Library entry C      F aug-cc-pVQZ          selected for orbital group  1
 Library entry C      G aug-cc-pVQZ          selected for orbital group  1
 Library entry H      S aug-cc-pVQZ          selected for orbital group  2
 Library entry H      P aug-cc-pVQZ          selected for orbital group  2
 Library entry H      D aug-cc-pVQZ          selected for orbital group  2
 Library entry H      F aug-cc-pVQZ          selected for orbital group  2
 Library entry S      S aug-cc-pVQZ          selected for orbital group  3
 Library entry S      P aug-cc-pVQZ          selected for orbital group  3
 Library entry S      D aug-cc-pVQZ          selected for orbital group  3
 Library entry S      F aug-cc-pVQZ          selected for orbital group  3
 Library entry S      G aug-cc-pVQZ          selected for orbital group  3
 Library entry O      S aug-cc-pVQZ          selected for orbital group  4
 Library entry O      P aug-cc-pVQZ          selected for orbital group  4
 Library entry O      D aug-cc-pVQZ          selected for orbital group  4
 Library entry O      F aug-cc-pVQZ          selected for orbital group  4
 Library entry O      G aug-cc-pVQZ          selected for orbital group  4


 PROGRAM * SEWARD (Integral evaluation for generally contracted gaussian basis sets)     Author: Roland Lindh, 1990

 Geometry written to block  1 of record 700


 Point group  C1  



 ATOMIC COORDINATES

 NR  ATOM    CHARGE       X              Y              Z

   1  C       6.00    0.229710761   -0.279046786   -0.022398546
   2  C       6.00   -0.189535751   -1.469990173   -2.320335938
   3  C       6.00   -0.412761161   -4.083016720   -2.430337085
   4  C       6.00   -0.212957394   -5.515473342   -0.237594888
   5  C       6.00    0.190122700   -4.318699583    2.065927212
   6  C       6.00    0.411795889   -1.705537165    2.170295274
   7  H       1.00   -0.390581068   -0.299980416   -3.992341235
   8  H       1.00   -0.762218009   -5.010924215   -4.227039362
   9  H       1.00   -0.389691196   -7.556589017   -0.320763435
  10  H       1.00    0.312341871   -5.431062300    3.786084243
  11  H       1.00    0.672058042   -0.718336867    3.948596343
  12  S      16.00    0.700921529    3.184783973    0.096607335
  13  O       8.00   -0.932061491    4.042703759   -2.074764327
  14  O       8.00   -0.363519056    3.802914711    2.666139945

 Bond lengths in Bohr (Angstrom)

  1- 2  2.621951572   1- 6  2.622200599   1-12  3.497760071   2- 3  2.624850009   2- 7  2.050595954
       ( 1.387477020)       ( 1.387608800)       ( 1.850934919)       ( 1.389010807)       ( 1.085128648)

 3-4  2.626779751  3-8  2.052138270  4-5  2.626966893  4-9  2.050440207  5-6  2.624623691
     ( 1.390031982)     ( 1.085944806)     ( 1.390131014)     ( 1.085046230)     ( 1.388891044)

  5-10  2.052127811   6-11  2.050525666  12-13  2.849125269  12-14  2.849143240
       ( 1.085939271)       ( 1.085091453)       ( 1.507692163)       ( 1.507701673)

 Bond angles

  1- 2- 3  120.16561911   1- 2- 7  118.10737507   1- 6- 5  120.16640185   1- 6-11  118.17067823

  1-12-13  101.24777314   1-12-14  101.25655365   2- 1- 6  119.79333320   2- 1-12  120.07771904

  2-3-4  120.09398675   2-3-8  120.08621398   3-2-7  121.70138743   3-4-5  119.68419180

  3- 4- 9  120.16108123   4- 3- 8  119.81708521   4- 5- 6  120.09341483   4- 5-10  119.81610016

  5- 4- 9  120.15184174   5- 6-11  121.63735361   6- 1-12  120.06106555   6- 5-10  120.08762766

 13-12-14  114.07093659

 NUCLEAR CHARGE:                   73
 NUMBER OF PRIMITIVE AOS:        1366
 NUMBER OF SYMMETRY AOS:         1096
 NUMBER OF CONTRACTIONS:          954   (  954A   )
 NUMBER OF CORE ORBITALS:          13   (   13A   )
 NUMBER OF VALENCE ORBITALS:       41   (   41A   )


 NUCLEAR REPULSION ENERGY  499.64301973


 Eigenvalues of metric

         1 0.221E-06 0.376E-06 0.582E-06 0.809E-06 0.860E-06 0.128E-05 0.138E-05 0.139E-05


 Contracted 2-electron integrals neglected if value below      1.0D-14
 AO integral compression algorithm  1   Integral accuracy      1.0D-14

     458600.743 MB (compressed) written to integral file ( 52.3%)

     Node minimum: 113791.468 MB, node maximum: 115686.244 MB


 NUMBER OF SORTED TWO-ELECTRON INTEGRALS:25938903144.     BUFFER LENGTH:  32768
 NUMBER OF SEGMENTS: 181  SEGMENT LENGTH:  143996980      RECORD LENGTH: 524288

 Memory used in sort:     144.55 MW

 SORT1 READ109597427651. AND WROTE 21812485996. INTEGRALS IN  62496 RECORDS. CPU TIME:  4399.19 SEC, REAL TIME:  4812.69 SEC
 SORT2 READ 87260453956. AND WROTE103756295880. INTEGRALS IN1737212 RECORDS. CPU TIME:   730.67 SEC, REAL TIME:  6849.97 SEC

 Node minimum: 25938903144.  Node maximum: 25939244796. integrals

 OPERATOR DM      FOR CENTER  0  COORDINATES:    0.000000    0.000000    0.000000


 **********************************************************************************************************************************
 DATASETS  * FILE   NREC   LENGTH (MB)   RECORD NAMES
              1      18       63.30       500      700      610      900      950      970     1000      129      960     1100   
                                          VAR     GEOM    BASINP   SYMINP    ZMAT    AOBASIS   BASIS     P2S    ABASIS      S 
                                         1400     1410     1200     1210     1080     1600     1650     1700   
                                           T        V       H0       H01     AOSYM     SMH    MOLCAS    OPER   

              2       8       59.92       500      610      700     1000      520     2100     1001     2101   
                                          VAR    BASINP    GEOM     BASIS   MCVARS     RHF     BASIS     RHF  

 PROGRAMS   *        TOTAL       INT   CCSD(T)   RHF-SCF       INT   RESTART
 CPU TIMES  *     65508.08   6763.32  57873.77    455.09    415.51      0.10
 REAL TIME  *     72891.90 SEC
 DISK USED  *        19.97 GB (local),     1562.80 GB (total)
 SF USED    *        19.09 GB
 GA USED    *         0.00 MB       (max)       0.00 MB       (current)
 **********************************************************************************************************************************


 PROGRAM * RHF-SCF (CLOSED SHELL)       Authors: W. Meyer, H.-J. Werner


 NUMBER OF ELECTRONS:      37+   37-    SPACE SYMMETRY=1    SPIN SYMMETRY: Singlet 
 CONVERGENCE THRESHOLDS:    1.00E-05 (Density)    1.00E-07 (Energy)
 MAX. NUMBER OF ITERATIONS:       60
 INTERPOLATION TYPE:            DIIS
 INTERPOLATION STEPS:              2 (START)      1 (STEP)
 LEVEL SHIFTS:                  0.00 (CLOSED)  0.00 (OPEN) 



 Molecular orbitals read from record     2101.2  Type=RHF/CANONICAL (state 1.1)

 Present basis size:      954
 Previous basis size:     533
 Previous occupation:      37
 Previous closed-shells:   37
 Previous core-orbitals:   13
 Present occupation:       37
 Present closed-shells:    37
 Present core-orbitals:    13
 Wavefunction symmetry:    1   Singlet 

 Orbital overlap <old|new>:  < 1.1| 1.1> = 1.000000   < 2.1| 2.1> = 0.999999   < 3.1| 3.1> = 0.999999   < 4.1| 4.1> = 0.999999
                             < 5.1| 5.1> = 0.999999   < 6.1| 6.1> = 0.999999   < 7.1| 7.1> = 0.999999   < 8.1| 8.1> = 0.999999
                             < 9.1| 9.1> = 0.999999   <10.1|10.1> = 1.000000   <11.1|11.1> = 0.999999   <12.1|12.1> = 0.999999
                             <13.1|13.1> = 0.999998   <14.1|14.1> = 0.999995   <15.1|15.1> = 0.999992   <16.1|16.1> = 0.999995
                             <17.1|17.1> = 0.999996   <18.1|18.1> = 0.999996   <19.1|19.1> = 0.999994   <20.1|20.1> = 0.999994
                             <21.1|21.1> = 0.999994   <22.1|22.1> = 0.999993   <23.1|23.1> = 0.999994   <24.1|24.1> = 0.999986
                             <25.1|25.1> = 0.999993   <26.1|26.1> = 0.999990   <27.1|27.1> = 0.999984   <28.1|28.1> = 0.999984
                             <29.1|29.1> = 0.999988   <30.1|30.1> = 0.999984   <31.1|31.1> = 0.999990   <32.1|32.1> = 0.999974
                             <33.1|33.1> = 0.999972   <34.1|34.1> = 0.999973   <35.1|35.1> = 0.999988   <36.1|36.1> = 0.999986
                             <37.1|37.1> = 0.999976


 Molecular orbital dump at record        2102.2

 ITERATION    DDIFF          GRAD             ENERGY        2-EL.EN.            DIPOLE MOMENTS         DIIS   ORB.
    1      0.000D+00      0.000D+00      -777.54191328   1591.560503    0.59943   -3.23565   -0.25598    0    start
    2      0.000D+00      0.909D-03      -777.55004159   1591.909068    0.59064   -3.23405   -0.25486    1    diag
    3      0.153D-01      0.549D-04      -777.55010038   1591.727921    0.59412   -3.22810   -0.25497    2    diag
    4      0.100D-02      0.111D-04      -777.55010436   1591.794293    0.59051   -3.23074   -0.25468    3    diag
    5      0.665D-04      0.465D-05      -777.55010531   1591.779105    0.59173   -3.22954   -0.25476    4    diag
    6      0.198D-04      0.189D-05      -777.55010552   1591.775740    0.59123   -3.22973   -0.25471    5    diag
    7      0.586D-05      0.774D-06      -777.55010558   1591.776005    0.59130   -3.22963   -0.25471    6    diag
    8      0.401D-05      0.178D-06      -777.55010558   1591.776121    0.59132   -3.22971   -0.25472    0    orth

 Final occupancy:  37

 !RHF STATE  1.1 Energy              -777.550105579098
 Nuclear energy                       499.64301973
 One-electron energy                -2073.08118594
 Two-electron energy                  795.88806063
 Virial quotient                       -1.00069532
 !RHF STATE  1.1 Dipole moment          0.59131975    -3.22970778    -0.25472096
 Dipole moment /Debye                   1.50288645    -8.20856069    -0.64739370

 Orbital energies:

         1.1          2.1          3.1          4.1          5.1          6.1          7.1          8.1          9.1         10.1
    -91.900393   -20.316483   -20.316400   -11.116982   -11.114517   -11.114189   -11.102897   -11.102575   -11.098700    -8.877553

        11.1         12.1         13.1         14.1         15.1         16.1         17.1         18.1         19.1         20.1
     -6.560765    -6.559933    -6.558444    -1.183064    -1.081808    -1.028556    -0.892188    -0.891455    -0.716082    -0.701292

        21.1         22.1         23.1         24.1         25.1         26.1         27.1         28.1         29.1         30.1
     -0.633758    -0.571155    -0.500645    -0.500428    -0.463800    -0.459417    -0.411302    -0.399827    -0.381903    -0.374090

        31.1         32.1         33.1         34.1         35.1         36.1         37.1         38.1         39.1
     -0.365227    -0.274410    -0.264169    -0.242320    -0.215205    -0.207557    -0.153046     0.092791     0.098754


 HOMO     37.1    -0.153046 =      -4.1646eV
 LUMO     38.1     0.092791 =       2.5250eV
 LUMO-HOMO         0.245837 =       6.6896eV


 **********************************************************************************************************************************
 DATASETS  * FILE   NREC   LENGTH (MB)   RECORD NAMES
              1      18       63.30       500      700      610      900      950      970     1000      129      960     1100   
                                          VAR     GEOM    BASINP   SYMINP    ZMAT    AOBASIS   BASIS     P2S    ABASIS      S 
                                         1400     1410     1200     1210     1080     1600     1650     1700   
                                           T        V       H0       H01     AOSYM     SMH    MOLCAS    OPER   

              2       9       86.34       500      610      700     1000      520     2100     1001     2101     2102   
                                          VAR    BASINP    GEOM     BASIS   MCVARS     RHF     BASIS     RHF      RHF  

 PROGRAMS   *        TOTAL   RHF-SCF       INT   CCSD(T)   RHF-SCF       INT   RESTART
 CPU TIMES  *     73111.43   7603.33   6763.32  57873.77    455.09    415.51      0.10
 REAL TIME  *     81198.08 SEC
 DISK USED  *        19.97 GB (local),     1562.80 GB (total)
 SF USED    *        19.09 GB
 GA USED    *         0.00 MB       (max)       0.00 MB       (current)
 **********************************************************************************************************************************


 PROGRAM * CCSD (Closed-shell coupled cluster)     Authors: C. Hampel, H.-J. Werner, 1991, M. Deegan, P.J. Knowles, 1992


 Convergence thresholds:  THRVAR = 1.00D-08  THRDEN = 1.00D-06

 CCSD(T)     terms to be evaluated (factor= 1.000)


 Number of core orbitals:          13 (  13 )
 Number of closed-shell orbitals:  24 (  24 )
 Number of external orbitals:     917 ( 917 )

 Molecular orbitals read from record     2102.2  Type=RHF/CANONICAL (state 1.1)

 Number of N-1 electron functions:              24
 Number of N-2 electron functions:             300
 Number of singly external CSFs:             22008
 Number of doubly external CSFs:         242187036
 Total number of CSFs:                   242209045

 Length of J-op  integral file:               0.00 MB
 Length of K-op  integral file:              62.56 MB
 Length of 3-ext integral record:             0.00 MB

 For full I/O caching in triples, increase memory by 12000.45 Mwords to 21000.50 Mwords.

 Multipassing necessary in transformation. To avoid, increase memory by 2317.83 Mwords.

 Integral transformation finished. Total CPU:******* sec, npass=  2  Memory used:8538.21 MW

 Reference energy:                   -777.55010558

 MP2 singlet pair energy:              -1.08316743
 MP2 triplet pair energy:              -0.66651896
 MP2 correlation energy:               -1.74968639
 MP2 total energy:                   -779.29979197

 SCS-MP2 correlation energy:           -1.71452383   (PS=  1.200000  PT=  0.333333)
 SCS-MP2 total energy:               -779.26462941

 ITER.      SQ.NORM     CORR.ENERGY   TOTAL ENERGY   ENERGY CHANGE        DEN1      VAR(S)    VAR(P)  DIIS     TIME  TIME/IT
   1      1.50972728    -1.74028659  -779.29039217     0.00939980     0.06217235  0.13D-01  0.14D-01  1  1 23709.10  8730.66
   2      1.54663503    -1.74003527  -779.29014085     0.00025133    -0.04187644  0.23D-03  0.15D-02  2  2 32348.05  8842.37
   3      1.56300089    -1.74060551  -779.29071109    -0.00057025    -0.00740518  0.33D-03  0.12D-03  3  3 41021.58  8885.48
   4      1.56971629    -1.74026956  -779.29037514     0.00033595    -0.00239850  0.38D-04  0.30D-04  4  4 49587.57  8882.97
   5      1.57391088    -1.74030884  -779.29041442    -0.00003928    -0.00085659  0.11D-04  0.29D-05  5  5 58298.75  8911.44
   6      1.57516718    -1.74027205  -779.29037763     0.00003679    -0.00016021  0.19D-05  0.63D-06  6  6 66776.73  8891.59
   7      1.57558050    -1.74025162  -779.29035719     0.00002044    -0.00001556  0.60D-06  0.16D-06  6  1 75232.61  8875.67
   8      1.57574160    -1.74024912  -779.29035470     0.00000250    -0.00002329  0.14D-06  0.41D-07  6  2 83913.08  8893.89
   9      1.57578196    -1.74024734  -779.29035292     0.00000177     0.00000730  0.36D-07  0.11D-07  6  3 92540.68  8903.06
  10      1.57581223    -1.74024514  -779.29035072     0.00000220    -0.00000496  0.11D-07  0.30D-08  6  4103245.06  9140.48
  11      1.57581572    -1.74024580  -779.29035138    -0.00000066     0.00000147  0.38D-08  0.90D-09  6  1114330.60  9369.99
  12      1.57582088    -1.74024555  -779.29035113     0.00000025    -0.00000043  0.10D-08  0.25D-09  6  5125422.55  9561.56

 Norm of t1 vector:      0.15659258      S-energy:    -0.00000065      T1 diagnostic:  0.01598216
                                                                       D1 diagnostic:  0.05321920

   CPU time for triples:  48482.43 sec for i =  1 - 13 / 24 (~  17.2 % done)
   CPU time for triples:  57435.14 sec for i = 14 - 14 / 24 (~  21.2 % done)
   CPU time for triples:  50798.19 sec for i = 15 - 15 / 24 (~  25.8 % done)
   CPU time for triples:  21795.17 sec for i = 16 - 16 / 24 (~  31.1 % done)
   CPU time for triples:  23390.56 sec for i = 17 - 17 / 24 (~  37.0 % done)
   CPU time for triples:  47504.90 sec for i = 18 - 18 / 24 (~  43.6 % done)
   CPU time for triples:  45403.65 sec for i = 19 - 20 / 24 (~  59.0 % done)
   CPU time for triples:  45960.98 sec for i = 21 - 21 / 24 (~  67.9 % done)
   CPU time for triples:  43882.41 sec for i = 22 - 22 / 24 (~  77.7 % done)
   CPU time for triples:  43131.83 sec for i = 23 - 23 / 24 (~  88.4 % done)
   CPU time for triples:  50321.22 sec for i = 24 - 24 / 24 (  100.0 % done)

 Total CPU time for triples: 478108.00 sec


 RESULTS
 =======

  Reference energy                   -777.550105579084
  CCSD singlet pair energy             -1.153317490453
  CCSD triplet pair energy             -0.586927404278
  CCSD correlation energy              -1.740245549558

  Triples (T) contribution             -0.097562895632
  Total correlation energy             -1.837808445190

  CCSD total energy                  -779.290351128642
  CCSD[T] energy                     -779.391789844324
  CCSD-T energy                      -779.386563709643
 !CCSD(T) total energy               -779.387914024274

 Timing summary (sec):

 STEP                 CPU(USER)    SYS     CPU(TOT)    WALL
 Transformation      15192.60    549.71  15742.31  15812.04
 CCSD iterations    110232.03   1524.57 111756.60 114726.64
 Triples            478108.00   3038.94 481146.94 484130.78

 Program statistics:

 Available memory in ccsd:              8999996822
 Min. memory needed in ccsd:             543871750
 Max. memory used in ccsd:               774294778
 Max. memory used in cckext:             554768215 (12 integral passes)



 **********************************************************************************************************************************
 DATASETS  * FILE   NREC   LENGTH (MB)   RECORD NAMES
              1      19    77463.60       500      700      610      900      950      970     1000      129      960     1100   
                                          VAR     GEOM    BASINP   SYMINP    ZMAT    AOBASIS   BASIS     P2S    ABASIS      S 
                                         1400     1410     1200     1210     1080     1600     1650     1700     1380   
                                           T        V       H0       H01     AOSYM     SMH    MOLCAS    OPER     JKOP   

              2       9       86.34       500      610      700     1000      520     2100     1001     2101     2102   
                                          VAR    BASINP    GEOM     BASIS   MCVARS     RHF     BASIS     RHF      RHF  

 PROGRAMS   *        TOTAL   CCSD(T)   RHF-SCF       INT   CCSD(T)   RHF-SCF       INT   RESTART
 CPU TIMES  *    676644.20 603532.73   7603.33   6763.32  57873.77    455.09    415.51      0.10
 REAL TIME  *    695883.75 SEC
 DISK USED  *       101.77 GB (local),     1838.65 GB (total)
 SF USED    *        98.69 GB
 GA USED    *         0.00 MB       (max)       0.00 MB       (current)
 **********************************************************************************************************************************
 SETTING EHF(2)         =      -777.55010558  AU                              
 SETTING ECOR_CCSDT(2)  =        -1.83780845  AU                              
 SETTING ECOR_MP2(2)    =        -1.74968639  AU                              


 Extrapolating energy using  ECORR and basissets AVTZ AVQZ

 *** Long output written to logfile /home/vallet/John-sulfinate/Radicals-Anions/C6H5SO2-m1/geom-C6H5SO2-m1/optg-freq-pbe0/CCSD-T/C6H5SO2-m1.CCSD-T-CBS.log ***


 Extrapolating reference energy using E(n)=ECBS+A*(l+1)*exp(-9*sqrt(l))

 E(CBS)=  -777.55428098  A= 0.548313D+05

 Extrapolating correlation energy using function (n+ 0.5)^{-X} with X= 4.0

 L=3  E=    -1.74977605  EFIT=    -1.74977605
 L=4  E=    -1.83780845  EFIT=    -1.83780845

 E(CBS)=    -1.88861753  Coefficients:   20.8349

 BASIS           EREF            ECORR           ETOT
 AVTZ       -777.51703259     -1.74977605   -779.26680864
 AVQZ       -777.55010558     -1.83780845   -779.38791402
 CBS        -777.55428098     -1.88861753   -779.44289850



 **********************************************************************************************************************************
 DATASETS  * FILE   NREC   LENGTH (MB)   RECORD NAMES
              1      19    77463.60       500      700      610      900      950      970     1000      129      960     1100   
                                          VAR     GEOM    BASINP   SYMINP    ZMAT    AOBASIS   BASIS     P2S    ABASIS      S 
                                         1400     1410     1200     1210     1080     1600     1650     1700     1380   
                                           T        V       H0       H01     AOSYM     SMH    MOLCAS    OPER     JKOP   

              2       9       86.34       500      610      700     1000      520     2100     1001     2101     2102   
                                          VAR    BASINP    GEOM     BASIS   MCVARS     RHF     BASIS     RHF      RHF  

 PROGRAMS   *        TOTAL  EXTRAPOL   CCSD(T)   RHF-SCF       INT   CCSD(T)   RHF-SCF       INT   RESTART
 CPU TIMES  *    676644.30      0.00 603532.73   7603.33   6763.32  57873.77    455.09    415.51      0.10
 REAL TIME  *    695885.11 SEC
 DISK USED  *       101.77 GB (local),     1838.65 GB (total)
 SF USED    *        98.69 GB
 GA USED    *         0.00 MB       (max)       0.00 MB       (current)
 **********************************************************************************************************************************


 Extrapolating energy using  ECORR and basissets AVTZ AVQZ

 Extrapolating reference energy using E(n)=ECBS+A*(l+1)*exp(-9*sqrt(l))

 E(CBS)=  -777.55428098  A= 0.548313D+05

 Extrapolating correlation energy using function (n+ 0.5)^{-X} with X= 4.0

 L=3  E=    -1.65059784  EFIT=    -1.65059784
 L=4  E=    -1.74968639  EFIT=    -1.74968639

 E(CBS)=    -1.80687669  Coefficients:   23.4516

 BASIS           EREF            ECORR           ETOT
 AVTZ       -777.51703259     -1.65059784   -779.16763043
 AVQZ       -777.55010558     -1.74968639   -779.29979197
 CBS        -777.55428098     -1.80687669   -779.36115766



 **********************************************************************************************************************************
 DATASETS  * FILE   NREC   LENGTH (MB)   RECORD NAMES
              1      19    77463.60       500      700      610      900      950      970     1000      129      960     1100   
                                          VAR     GEOM    BASINP   SYMINP    ZMAT    AOBASIS   BASIS     P2S    ABASIS      S 
                                         1400     1410     1200     1210     1080     1600     1650     1700     1380   
                                           T        V       H0       H01     AOSYM     SMH    MOLCAS    OPER     JKOP   

              2       9       86.34       500      610      700     1000      520     2100     1001     2101     2102   
                                          VAR    BASINP    GEOM     BASIS   MCVARS     RHF     BASIS     RHF      RHF  

 PROGRAMS   *        TOTAL  EXTRAPOLEXTRAPOLAT   CCSD(T)   RHF-SCF       INT   CCSD(T)   RHF-SCF       INT   RESTART
 CPU TIMES  *    676644.31      0.00      0.00 603532.73   7603.33   6763.32  57873.77    455.09    415.51      0.10
 REAL TIME  *    695885.12 SEC
 DISK USED  *       101.77 GB (local),     1838.65 GB (total)
 SF USED    *        98.69 GB
 GA USED    *         0.00 MB       (max)       0.00 MB       (current)
 **********************************************************************************************************************************
 Molecular orbitals read from record     2102.2  Type=RHF/CANONICAL (state 1.1)
 Occupation numbers read from record     2102.2  Type=RHF/RHF (state 1.1)
 Orbital energies read from record       2102.2  Type=RHF/CANONICAL (state 1.1)
 Redundancy group numbers read from rec  2102.2  Type=RHF/RHF (state 1.1)

 CCSD(T)/aug-cc-pVTZ:aug-cc-pVQZ energy=   -779.361157662338

     EXTRAPOLATE         CCSD(T)         RHF-SCF         CCSD(T)         RHF-SCF
   -779.38791402   -779.38791402   -777.55010558   -779.26680864   -777.51703259
 **********************************************************************************************************************************
 Molpro calculation terminated
