
   OpenMP run-time library returned nthreads =  8
 operating system is UNIX !

 force (u-3-1.local) : TURBOMOLE V7.2 ( 21285 ) 30 Jun 2017 at 09:40:16
 Copyright (C) 2017 TURBOMOLE GmbH, Karlsruhe


    2017-09-21 17:47:16.792 



                             T U R B O M O L E   

                          a o f o r c e - program

                        using direct algorithms for

                       SCF level calculations of
                         * harmonic force constants
                         * hyperpolarizabilities
                         * IR and RAMAN intensities
                         * VCD intensities

                       DFT level calculations of
                         * harmonic force constants
                         * IR intensities
                                                   
       Stephan Boecker, Peter Deglmann, Filipp Furche and Marco Haeser
                          Quantum Chemistry Group
                          Universitaet  Karlsruhe
                                   Germany

 
 

          OpenMP Shared-Memory Parallelization:  8 CPUs.

            By: Erik P. Almaraz and Filipp Furche
            Copyright 2009-2011 by UCI and TURBOMOLE GmbH.

 
 
     References :
 
       RI-J implementation:
         Peter Deglmann, Klaus May, Filipp Furche, Reinhart Ahlrichs
                 Chem. Phys. Lett. 384:103 (2004)
 
       Efficiency, technical details:
         Peter Deglmann, Filipp Furche, Reinhart Ahlrichs
                 Chem. Phys. Lett. 362:511 (2002)
 
       Search of lowest eigenvalues by iterative diagonalization:
         Peter Deglmann, Filipp Furche
                 J. Chem. Phys. 117:9535 (2002)
 
       Vibrational circular dichroism implementation:
        Kevin Reiter, Michael Kuehn, Florian Weigend
                 J. Chem. Phys. 146:054102 (2017)  
 
 


              +--------------------------------------------------+
              | Atomic coordinate, charge and isotop information |
              +--------------------------------------------------+

                    atomic coordinates            atom    charge  isotop
          0.95306300    0.27545264    4.00021060    c      6.000     0
          2.87995038    0.32840382    2.22401420    c      6.000     0
          2.30798674    0.38499188   -0.33471340    c      6.000     0
         -0.20054057    0.36245120   -1.06909481    c      6.000     0
         -2.14932088    0.32894537    0.68466938    c      6.000     0
         -1.55870340    0.27570256    3.23393446    c      6.000     0
         -0.89476721    0.58178397   -4.38070422    s     16.000     0
         -2.36760954   -2.19788070   -4.43409926    o      8.000     0
         -3.35697055   -2.24081329   -5.96386380    h      1.000     0
          1.53924467    0.35348273   -5.70680727    o      8.000     0
         -4.10116001    0.31804253    0.06633985    h      1.000     0
         -3.05729114    0.23207305    4.62702193    h      1.000     0
          1.40662418    0.23927027    5.99591840    h      1.000     0
          4.83497955    0.32903909    2.82931435    h      1.000     0
          3.76451459    0.42905507   -1.77214039    h      1.000     0
 
       center of nuclear mass  :   -0.11002024    0.08397516   -1.34984038
       center of nuclear charge:   -0.10889035    0.07561772   -1.25678117

              +--------------------------------------------------+
              |               basis set information              |
              +--------------------------------------------------+

              we will work with the 1s 3p 5d 7f 9g ... basis set
              ...i.e. with spherical basis functions...

   type   atoms  prim   cont   basis
   ---------------------------------------------------------------------------
    c        6     66     46   aug-cc-pVTZ   [5s4p3d2f|19s6p3d2f]
    s        1    122     50   aug-cc-pVTZ   [6s5p3d2f|42s17p3d2f]
    o        2     66     46   aug-cc-pVTZ   [5s4p3d2f|19s6p3d2f]
    h        6     25     23   aug-cc-pVTZ   [4s3p2d|6s3p2d]
   ---------------------------------------------------------------------------
   total:   15    800    556
   ---------------------------------------------------------------------------

   total number of primitive shells          :  135
   total number of contracted shells         :  182
   total number of cartesian basis functions :  649
   total number of SCF-basis functions       :  556

 
             FOUND RI-J FLAG !
 

 NOTE: THIS IS A PRELIMINARY IMPLEMENTATION. THE RI APPROXIMATION IS
       PRESENTLY USED FOR CPKS CONTRIBUTIONS TO THE HESSIAN ONLY! SEE
       MANUAL FOR FURTHER DETAILS.

  
 AUXILIARY BASIS SET information:

              we will work with the 1s 3p 5d 7f 9g ... basis set
              ...i.e. with spherical basis functions...

   type   atoms  prim   cont   basis
   ---------------------------------------------------------------------------
    c        6     70     49   aug-cc-pVTZ   [6s4p3d1f1g|12s5p4d2f1g]
    s        1     77     51   aug-cc-pVTZ   [8s4p3d1f1g|14s5p5d2f1g]
    o        2     70     49   aug-cc-pVTZ   [6s4p3d1f1g|12s5p4d2f1g]
    h        6     16     11   aug-cc-pVTZ   [3s1p1d|5s2p1d]
   ---------------------------------------------------------------------------
   total:   15    733    509
   ---------------------------------------------------------------------------

   total number of primitive shells          :   83
   total number of contracted shells         :  167
   total number of cartesian basis functions :  623
   total number of SCF-basis functions       :  509


 symmetry group of the molecule :   c1 

 the group has the following generators :
   c1(z)

    1 symmetry operations found

 there are 1 real representations :   a   

 maximum number of shells which are related by symmetry :  1


 determining totally symmetric integral contributions 
    - equivalent to irreducible tensor elements - 
 which can be formed within each triple of representations :

             representation triple      contributions

              a     a     a               1

    mo occupation :
   irrep   mo's   occupied
    a      556       37
 
 number of basis functions   :                    556
 number of occupied orbitals :                     37
 
  MOs are in ASCII format !


 reading orbital data $scfmo  from file mos
 orbital characterization : scfconv=6
 time elapsed for calculating density matrices :   0.024 sec

 number of non-frozen orbitals          :   556
 number of non-frozen occupied orbitals :    37
 Blocking parameters 
 shells:
    index      start shell   last shell  start bf    last bf    #bf 
       1             1         182             1        649    649
  
           ----------------------
               RI - INFORMATION
           ----------------------

 biggest AO integral is expected to be     9.679779311

 Threshold for integral neglect (rithr2):   0.39E-10
 Threshold for integral neglect (rithr1):   0.39E-10

 Contributions to RI integral batches: 
  neglected integral batches:                   923
  direct contribution:                         5546
  memory contribution:                 10184
 Core memory available (ricore):               500 MiB
 Core memory needed for (P|Q) and Cholesky:      2 MiB
 Core memory used for integrals:               445 MiB
 
 ****************************************
 Memory allocated for RIDFT: 447 MiB
 ****************************************
 
  
           ------------------
           density functional
           ------------------
 PBE0 hybrid functional
 exchange:    3/4 (LDA+PBE) + 1/4 HF
 correlation: LDA (PW) + PBE

 iterations will be done with small grid
  
 spherical integration : Lebedev's spherical grid
 spherical gridsize    :                     4
    i.e. gridpoints    :                   434
 value for diffuse not defined
 radial integration    : Chebyshev 2nd kind (scaling 3)
 radial gridsize       :                     6
 integration cells     :                    15
 partition function    : becke
 partition sharpness   :                     3
  
 
 Derivatives of quadrature weights will be included
 
          Overall gridpoints after grid construction =        153235
 Ordering of quadrature gridpoints disabled.
 
 
 
 
 OCCUPIED-OCCUPIED TENSOR SPACES :

          IRREP   tensor space dimension   number of roots

           a              1369                  39
 
 OCCUPIED-VIRTUAL TENSOR SPACES :

          IRREP   tensor space dimension   number of roots

           a             19203                  39
 
 
 
 
 CONSTRUCTING integral bounds

 setting up bound for integral derivative estimation

 increment for numerical differentiation : 0.00050000
 
 machine precision:   2.220446049250313E-016

 integral neglect threshold       :  0.10E-09
 integral storage threshold THIZE :  0.10E-04
 integral storage threshold THIME :         5

 
 
 
 PREPARING NUMERICAL INTEGRATION
 
 Remaining core memory for DFT =                  3563 MB
 
 Memory needed per atom    =                  4943 KiB
 
     i. e.                    15 atoms per loop

 Calculating ground state density on molecular grid

 Integral of ground state density: N =   74.00000160576225    


 
 
 CONSTRUCTING first deriv. of <mu|x,y,z|nu> -> Dip. deriv.
  dipole integral derivatives will be neglected if
  expon. factor <0.770416E-11
      ...terminated. cpu:       0.84       wall:       0.11
 
 
 
 
 CONSTRUCTING first deriv. of  <mu|nu>
                               <mu|h|nu>    -> RHS
              second deriv. of <mu|nu>      -> Hessian
                               <mu|h|nu>    -> Hessian
                               nucl. rep.   -> Hessian
     integrals are neglected if expon. factor <  7.704160246533127E-013
      ...terminated. cpu:       5.99       wall:       3.22
 
 
 
 
 CONSTRUCTING second deriv. of 2e energy    -> Hessian
   treating Coulomb (and exchange) contribution
     integrals will be neglected if total contribution <  7.704160246533127E-009
      ...terminated. cpu:    7094.48       wall:     886.90
   treating exchange-correlation contribution
      ...terminated. cpu:    1270.88       wall:     159.38
 
 
 
 
 CONSTRUCTING S(i,j)xi
      ...terminated. cpu:       0.27       wall:       0.05
 
 
 
 
 CONSTRUCTING <i|x,y,z|j>*S(i,j)xi          -> Dip. deriv.
      ...terminated. cpu:       1.35       wall:       0.70
 
 
 
 
 CONSTRUCTING epsilon(i)*S(i,j)xi*S(i,j)chi -> Hessian
      ...terminated. cpu:       0.00       wall:       0.00
 
 
 
 
 CONSTRUCTING G(a,i)[S(k,l)xi]              -> RHS
              G(i,j)[S(k,l)xi]*S(i,j)chi    -> Hessian
 
         Maximum core memory set to                   4000 MB
         This corresponds to                  1233 vectors in CAO basis
      ...terminated. cpu:    7270.14       wall:     909.58
 
 
 
 
 CONSTRUCTING G(mu,nu)[D(kap,lam)]xi
 
          Maximum core memory set to                   4000 MB
          Atoms treated simultaneously :                    15
      ...terminated. cpu:    5623.11       wall:     704.12
 
 
 
 
 CONSTRUCTING F(a,i)xi                      -> RHS
              F(i,j)xi*S(i,j)chi            -> Hessian
 
        Maximum core memory set to                  4000 MB
        This corresponds to                  2278 vectors in CAO basis
      ...terminated. cpu:       5.59       wall:       1.19
 
 
 
 
 CONSTRUCTING epsilon(i)*S(a,i)xi           -> RHS
      ...terminated. cpu:       1.77       wall:       0.61
 
 
 
 
 SOLVING CPHF equations
 
 Residuum convergence criterium   :  1.000000000000000E-005
 
 Maximum number of Davidson iterations set to                    25
  Switching to small grid
        preparing numerical integration ....
          Overall gridpoints after grid construction =         43576

 Calculating ground state density on molecular grid

 Integral of ground state density: N =   74.00011962209433    




                       Nonorthonormal Krylov Space Iteration


 total number of roots to be determined:  39


 maximum core memory set to  4000 MB,
 corresponding to     1231 vectors in CAO basis


 maximum number of simultaneously treated vectors (including degeneracy):       39


 Iteration IRREP Converged      Max. Euclidean
                 roots          residual norm

    1       a        0        1.571035124412332D-01
 
    2       a        0        1.557633479446483D-02
 
    3       a        0        1.820228473207567D-03
 
    4       a        0        1.475033255760649D-04
 
    5       a       38        1.045518319759630D-05
 
    6       a       39        8.001768675671212D-06
 

 converged!

  Switching to fine grid
        preparing numerical integration ....
          Overall gridpoints after grid construction =        153235

 Calculating ground state density on molecular grid

 Integral of ground state density: N =   74.00000160576292    



 Iteration IRREP Converged      Max. Euclidean
                 roots          residual norm

    7       a        0        1.015276618231011D-04
 

 NOTE: Residual norms are larger than 1.00D-05 due to mgrid option!

      ...terminated. cpu:   32110.96       wall:    4020.44
 
 
 
 
 CONSTRUCTING <a|x,y,z|i>*U(a,i)xi          -> Dip. deriv.
      ...terminated. cpu:       0.58       wall:       0.07
 
 
 
 
 CONSTRUCTING RHS(a,i)xi*U(a,i)chi          -> Hessian
      ...terminated. cpu:       0.10       wall:       0.01
 
 
 
 

            -----------------------
            permanent dipole moment
            -----------------------

                                   x                y                z
    electronic part       :    7.2267108571    -5.5273555190    93.8666789999
     nuclear   part       :   -8.0578860780     5.5957113680   -93.0018069267
     total                :   -0.8311752209     0.0683558491     0.8648720732

 with reference to the point :   0.0000000        0.0000000        0.0000000
 (given in atomic units)
    | dipole |       :    3.0538534262  debye

   ***  dipole moment & cartesian dipole gradients written onto
        $dipole, $dipgrad,  file=<dipgrad>  ***

             -----------------------------------
             rotational and vibrational analysis
             -----------------------------------


            ==============================================================
            ATOMIC WEIGHTS (average over the natural occurance of isotops)
            ==============================================================
            ('*' denotes special isotop !)
              1     c                12.01115
              2     c                12.01115
              3     c                12.01115
              4     c                12.01115
              5     c                12.01115
              6     c                12.01115
              7     s                32.06400
              8     o                15.99940
              9     h                 1.00797
             10     o                15.99940
             11     h                 1.00797
             12     h                 1.00797
             13     h                 1.00797
             14     h                 1.00797
             15     h                 1.00797

          -------------------------------------------------
          CARTESIAN FORCE CONSTANT MATRIX (hartree/bohr**2)
         (translational & rotational space projected out)
          -------------------------------------------------

   ATOM              1 c                           2 c 
                  dx        dy        dz        dx        dy        dz
   1 c     dx  0.6800421
           dy  0.0035060 0.1391406
           dz  0.0134055-0.0125773 0.7455966
   2 c     dx -0.2485492-0.0042395 0.1421513 0.7431027
           dy -0.0027496-0.0636283 0.0044059 0.0036446 0.1362476
           dz  0.0747142 0.0038208-0.2288483 0.0199914-0.0124868 0.6804870
   3 c     dx  0.0567171-0.0001300 0.0110758-0.1365285-0.0001501-0.0122446
           dy -0.0007906 0.0061688 0.0009905 0.0017968-0.0636513 0.0071703
           dz  0.0589928 0.0018363-0.0480802-0.0809362 0.0062487-0.3345779
   4 c     dx -0.0665508-0.0006135 0.0151004 0.0041454 0.0018715-0.0864058
           dy -0.0001031-0.0061289 0.0006937 0.0006354 0.0065884 0.0003472
           dz  0.0168915 0.0000501-0.0042894-0.0373335-0.0000542-0.0030441
   5 c     dx  0.0092674 0.0011595-0.0381559-0.0060656-0.0008465 0.0212604
           dy  0.0016216 0.0064618-0.0002170-0.0002189-0.0047729 0.0015048
           dz -0.0869350-0.0005572-0.0016576 0.0197472 0.0019075-0.0642577
   6 c     dx -0.3237793 0.0001056-0.0926377-0.0519367-0.0016042 0.0508658
           dy -0.0013880-0.0638475 0.0010652-0.0004471 0.0064766-0.0008719
           dz -0.0248759 0.0017056-0.1468714 0.0037557-0.0015120 0.0612965
   7 s     dx -0.0041193 0.0001938 0.0007078-0.0068497-0.0025407-0.0024470
           dy -0.0000986-0.0009541 0.0002798 0.0003469 0.0063970-0.0003952
           dz -0.0018125 0.0003983 0.0009963-0.0005733-0.0036171 0.0021507
   8 o     dx -0.0003520-0.0001572-0.0001111-0.0001531 0.0015485-0.0005695
           dy -0.0002651-0.0001915-0.0003989 0.0002261-0.0001264-0.0007515
           dz -0.0002917-0.0002069-0.0003219-0.0006743 0.0024954-0.0005553
   9 h     dx  0.0001343-0.0000351 0.0000753 0.0001417 0.0001635-0.0000261
           dy -0.0000496-0.0001107-0.0000284-0.0001996 0.0006602-0.0000886
           dz -0.0003567-0.0000095 0.0000962 0.0001984 0.0001424-0.0005139
  10 o     dx  0.0009223-0.0000834-0.0002752 0.0033775 0.0009876 0.0006310
           dy  0.0000538 0.0000436-0.0002478-0.0005231-0.0001912 0.0003519
           dz  0.0009048-0.0000496-0.0004648 0.0013995 0.0013841 0.0005708
  11 h     dx  0.0017387-0.0000966-0.0011302 0.0006140 0.0000147 0.0004718
           dy -0.0000084 0.0076178 0.0004889-0.0000699-0.0011790 0.0000050
           dz -0.0005019 0.0002449-0.0057218 0.0004861-0.0000076-0.0011209
  12 h     dx -0.0163647-0.0006632 0.0225718-0.0046867-0.0000387-0.0030866
           dy  0.0002367 0.0038791-0.0000180-0.0000282 0.0068713 0.0001923
           dz -0.0086756-0.0001735 0.0100763-0.0025026 0.0001093 0.0006373
  13 h     dx -0.0729547 0.0009569-0.0608173 0.0094903-0.0004155 0.0234633
           dy  0.0009674-0.0398508 0.0052358 0.0000595 0.0046556 0.0006975
           dz -0.0608319 0.0052927-0.3264808-0.0076982 0.0003454-0.0157564
  14 h     dx -0.0168854 0.0000650-0.0095192-0.3163477-0.0002605-0.0794284
           dy -0.0007217 0.0040472-0.0001421-0.0002863-0.0386818 0.0005064
           dz  0.0216824 0.0000594 0.0104472-0.0796754 0.0004416-0.0830063
  15 h     dx  0.0007335 0.0000319-0.0024413 0.0102455 0.0003754-0.0071899
           dy -0.0002107 0.0073529 0.0004697-0.0006967 0.0043341-0.0000022
           dz -0.0023100 0.0001656-0.0044764 0.0216640 0.0001975-0.0134615

   ATOM              3 c                           4 c 
                  dx        dy        dz        dx        dy        dz
   3 c     dx  0.7046587
           dy  0.0068125 0.1375120
           dz -0.0382951-0.0144883 0.7155488
   4 c     dx -0.3265212-0.0035319-0.0278406 0.6952694
           dy -0.0040964-0.0598851 0.0006363 0.0085476 0.1369707
           dz -0.0758584 0.0009098-0.1286526-0.0382925-0.0098622 0.5249086
   5 c     dx -0.0517333 0.0006210 0.0028564-0.2473450-0.0019643 0.1327977
           dy -0.0023528 0.0070831-0.0009231-0.0013902-0.0612312 0.0035387
           dz  0.0479766-0.0012770 0.0583529 0.0837358 0.0037882-0.2027919
   6 c     dx -0.0326290 0.0004439-0.0346279 0.0523125-0.0000866 0.0083222
           dy  0.0009844-0.0054596 0.0005784-0.0007357 0.0080574 0.0014683
           dz -0.0365402 0.0006510-0.0376747 0.0599688 0.0014624-0.0523559
   7 s     dx  0.0009416 0.0009662-0.0282504-0.0719508 0.0246055-0.0125981
           dy  0.0004433 0.0019119 0.0039061 0.0074139-0.0513532 0.0026564
           dz -0.0176731 0.0031311-0.0208577-0.0446138 0.0409892-0.1228698
   8 o     dx  0.0015466-0.0004547-0.0018299-0.0071924-0.0161614-0.0056977
           dy  0.0015745-0.0007754-0.0005794-0.0017727 0.0041957-0.0025869
           dz  0.0024099-0.0019575-0.0018462-0.0123799-0.0286270-0.0063287
   9 h     dx  0.0003705-0.0002130 0.0009310 0.0017785-0.0021704-0.0014891
           dy  0.0002757-0.0004318-0.0008413-0.0030404-0.0062811-0.0003973
           dz  0.0006522-0.0004701 0.0006919-0.0012864-0.0015642-0.0007263
  10 o     dx -0.0049757-0.0003347 0.0005085 0.0004945-0.0086111 0.0032983
           dy  0.0007022 0.0002498-0.0018674-0.0059143 0.0086280 0.0032107
           dz  0.0008222-0.0007501 0.0014511 0.0380087-0.0086434-0.0166909
  11 h     dx -0.0016078-0.0002535 0.0041349-0.0176082-0.0002698-0.0072513
           dy -0.0002682 0.0068516 0.0001354-0.0005371 0.0025557-0.0004490
           dz  0.0034410 0.0001642-0.0030102 0.0202156 0.0000274 0.0109512
  12 h     dx -0.0003393 0.0000457-0.0011360 0.0012067-0.0000130-0.0019009
           dy  0.0001481-0.0009839-0.0000290-0.0001067 0.0073386 0.0001976
           dz -0.0010402 0.0000117-0.0004332-0.0023164 0.0004398-0.0052370
  13 h     dx -0.0029947-0.0001502 0.0037187-0.0015692-0.0000195 0.0005692
           dy -0.0001268 0.0072779 0.0001031-0.0000323-0.0005423 0.0000370
           dz  0.0039746 0.0002078-0.0012361 0.0005586-0.0000314 0.0007641
  14 h     dx -0.0024694-0.0000311 0.0002221 0.0016717 0.0000124-0.0013620
           dy  0.0007433 0.0041244-0.0000032-0.0000350 0.0070339 0.0002363
           dz -0.0302629 0.0000606-0.0049876-0.0013276 0.0003917-0.0056013
  15 h     dx -0.2044355-0.0049263 0.1415519-0.0181411-0.0003054 0.0199049
           dy -0.0045598-0.0399924 0.0052874-0.0001232 0.0040534 0.0010447
           dz  0.1415624 0.0056460-0.1946885-0.0031248-0.0000478 0.0119640

   ATOM              5 c                           6 c 
                  dx        dy        dz        dx        dy        dz
   5 c     dx  0.7366119
           dy  0.0039110 0.1352072
           dz  0.0277424-0.0108215 0.6792952
   6 c     dx -0.1374292 0.0000146-0.0149501 0.7112473
           dy  0.0014750-0.0625708 0.0062225 0.0052310 0.1353891
           dz -0.0843475 0.0061704-0.3391873-0.0368742-0.0134473 0.7120314
   7 s     dx  0.0110584-0.0007851 0.0110013-0.0015467-0.0028956 0.0064404
           dy  0.0015393-0.0011559-0.0000970-0.0004277 0.0055796 0.0001802
           dz  0.0051901 0.0000499-0.0226141 0.0045283-0.0013796 0.0047799
   8 o     dx -0.0030552-0.0001545-0.0000795 0.0008357 0.0010778-0.0003994
           dy -0.0025504 0.0007741-0.0009256 0.0002272 0.0000372-0.0005195
           dz -0.0000763-0.0006012-0.0010114-0.0006490 0.0011816 0.0002933
   9 h     dx  0.0002258-0.0001352 0.0003331-0.0002570 0.0003552-0.0002313
           dy -0.0001826 0.0001706 0.0000993 0.0000114 0.0003815-0.0000388
           dz -0.0005279-0.0001144 0.0005390 0.0000709-0.0000617 0.0002844
  10 o     dx  0.0035230 0.0004893 0.0027867-0.0012458 0.0007051-0.0008912
           dy  0.0002094 0.0017721 0.0009958-0.0003562-0.0007377 0.0002316
           dz -0.0071109 0.0002034-0.0063469 0.0021963 0.0006135-0.0021681
  11 h     dx -0.3139551-0.0011152-0.0805247-0.0022598-0.0002047 0.0004391
           dy -0.0026408-0.0378033 0.0005446 0.0009759 0.0043965 0.0000807
           dz -0.0793485 0.0003659-0.0839628-0.0304485-0.0002266-0.0036136
  12 h     dx  0.0086906 0.0001741-0.0069462-0.2101268-0.0045699 0.1407405
           dy -0.0007136 0.0039896 0.0002694-0.0046439-0.0383070 0.0045548
           dz  0.0238489 0.0006683-0.0160162 0.1407302 0.0044637-0.1890887
  13 h     dx -0.0055530-0.0000100-0.0015339-0.0015904 0.0005475-0.0303601
           dy -0.0000321 0.0068405 0.0001124 0.0000098 0.0044595 0.0000391
           dz -0.0017716 0.0000813 0.0014178 0.0008732 0.0001901-0.0048194
  14 h     dx  0.0005141 0.0000093 0.0006063-0.0014427-0.0001507 0.0041340
           dy -0.0001364-0.0011355 0.0001010-0.0001313 0.0073233 0.0002395
           dz  0.0006310 0.0000082-0.0012455 0.0035510 0.0002194-0.0024567
  15 h     dx -0.0047548-0.0000580-0.0029600-0.0001522 0.0000156-0.0009587
           dy  0.0001514 0.0063706-0.0003627 0.0002305-0.0011781 0.0002021
           dz -0.0029882 0.0000862-0.0005133-0.0009504-0.0000156-0.0004496

   ATOM              7 s                           8 o 
                  dx        dy        dz        dx        dy        dz
   7 s     dx  0.5867403
           dy -0.0204577 0.3002362
           dz -0.1411806 0.0066803 0.3617970
   8 o     dx -0.0593545-0.0379458-0.0040294 0.2331438
           dy -0.0517990-0.1859563 0.0106610 0.0835775 0.1975092
           dz -0.0147713-0.0015741-0.0497129 0.2461889 0.0005325 0.4216797
   9 h     dx -0.0104362-0.0019836-0.0122187-0.1566690-0.0182387-0.2246848
           dy -0.0203603-0.0026004-0.0278490-0.0002141-0.0303756 0.0207397
           dz -0.0006076 0.0042815 0.0007643-0.2375659-0.0093831-0.3677146
  10 o     dx -0.4394859 0.0518994 0.2093815-0.0101592-0.0115500 0.0059939
           dy  0.0691924-0.0674771-0.0303881-0.0291736 0.0156388 0.0096288
           dz  0.1839145-0.0157365-0.1565708 0.0043359 0.0042136 0.0063332
  11 h     dx -0.0012841-0.0005024-0.0007922 0.0009579 0.0002353-0.0006698
           dy  0.0016018-0.0017991 0.0002014-0.0009240-0.0006166-0.0004799
           dz  0.0013762-0.0001186 0.0007699-0.0002815-0.0002460-0.0002890
  12 h     dx  0.0002596 0.0000062-0.0002937-0.0000018 0.0000188 0.0000565
           dy  0.0001798 0.0006530 0.0000642-0.0000688-0.0000108 0.0000137
           dz  0.0009324 0.0001840 0.0006866-0.0003197-0.0003652-0.0000707
  13 h     dx -0.0002438-0.0000577 0.0001706 0.0001042 0.0000299-0.0000666
           dy  0.0004150-0.0009772 0.0001720-0.0002020-0.0001028-0.0002390
           dz  0.0001441 0.0000447 0.0000173-0.0000727-0.0000964-0.0000506
  14 h     dx -0.0001743 0.0000989 0.0005186-0.0000983-0.0001230-0.0000813
           dy  0.0000008 0.0002577-0.0002886 0.0001265 0.0000414 0.0002624
           dz -0.0016601 0.0003105 0.0001621-0.0002968-0.0002491-0.0002666
  15 h     dx -0.0035547-0.0002744 0.0033982 0.0004471 0.0004095-0.0003042
           dy  0.0016833-0.0027619 0.0011751-0.0008743-0.0000411-0.0011683
           dz -0.0030018-0.0006022 0.0005014 0.0007283 0.0006943-0.0001383

   ATOM              9 h                          10 o 
                  dx        dy        dz        dx        dy        dz
   9 h     dx  0.1654250
           dy  0.0228293 0.0405466
           dz  0.2357937 0.0070869 0.3682881
  10 o     dx -0.0006731 0.0007754 0.0035342 0.4444075
           dy -0.0003031-0.0014840-0.0000434-0.0334111 0.0448406
           dz  0.0014993 0.0015193-0.0016405-0.2267376 0.0181009 0.1782799
  11 h     dx  0.0000910 0.0001616 0.0000760 0.0000929-0.0001185 0.0001576
           dy -0.0001577-0.0001718 0.0001130-0.0001205 0.0000092-0.0001396
           dz -0.0000765-0.0001217-0.0000801-0.0008666 0.0002854 0.0002199
  12 h     dx -0.0000046-0.0000003 0.0000053 0.0001062 0.0000168-0.0002483
           dy  0.0000195 0.0000145-0.0000184-0.0001062-0.0003835 0.0000379
           dz  0.0000513 0.0000019 0.0000430 0.0005182 0.0000363-0.0009499
  13 h     dx -0.0000052 0.0000177 0.0000070 0.0002916-0.0000221-0.0000119
           dy -0.0000501-0.0000749 0.0000093-0.0001345-0.0000489-0.0001627
           dz  0.0000203 0.0000121 0.0000237-0.0001273-0.0000105-0.0001725
  14 h     dx  0.0000208 0.0000006 0.0000297 0.0001857-0.0000498-0.0001412
           dy  0.0000044 0.0000678 0.0000626 0.0000392 0.0001294-0.0000101
           dz  0.0000708-0.0000635 0.0000356 0.0007456-0.0001564 0.0000230
  15 h     dx -0.0001426-0.0000248-0.0000229 0.0031384-0.0003027 0.0010111
           dy -0.0000849-0.0003108-0.0000307-0.0005444-0.0009890-0.0005807
           dz -0.0000484-0.0000305-0.0000906 0.0015001-0.0001277-0.0018734

   ATOM             11 h                          12 h 
                  dx        dy        dz        dx        dy        dz
  11 h     dx  0.3335285
           dy  0.0020519 0.0250290
           dz  0.0859168-0.0003057 0.0843841
  12 h     dx  0.0007556 0.0000238 0.0004916 0.2202690
           dy  0.0000959-0.0041072-0.0000477 0.0049740 0.0255104
           dz -0.0001679-0.0001275 0.0011723-0.1511401-0.0051192 0.1981825
  13 h     dx -0.0002197 0.0000729-0.0014651 0.0011072-0.0000016 0.0005371
           dy  0.0000148-0.0000481 0.0000050 0.0000504-0.0034653-0.0001026
           dz  0.0001357 0.0000180-0.0002978-0.0002942-0.0000876 0.0007140
  14 h     dx -0.0000625 0.0000105-0.0000628-0.0008926 0.0000068-0.0005317
           dy  0.0000355-0.0011903-0.0000107-0.0000332 0.0000255-0.0000070
           dz -0.0000580-0.0000327 0.0000968 0.0011183-0.0000016 0.0003259
  15 h     dx -0.0007813-0.0000102 0.0011240 0.0000215 0.0000083 0.0000762
           dy -0.0000490 0.0004554-0.0000082 0.0000086-0.0010244-0.0000200
           dz -0.0007378-0.0000525 0.0005019 0.0000620-0.0000083-0.0000419

   ATOM             13 h                          14 h 
                  dx        dy        dz        dx        dy        dz
  13 h     dx  0.0728330
           dy -0.0009463 0.0256214
           dz  0.0654114-0.0059039 0.3456392
  14 h     dx  0.0009335 0.0000313 0.0001782 0.3343992
           dy  0.0000591-0.0036909-0.0001032 0.0003137 0.0256125
           dz -0.0006410-0.0001029 0.0008939 0.0856408-0.0007944 0.0842953
  15 h     dx  0.0003709-0.0000242-0.0005002 0.0006479 0.0000212 0.0004818
           dy -0.0000611-0.0000537 0.0000408 0.0000665-0.0039645-0.0000907
           dz  0.0010187 0.0001000-0.0006565-0.0002030-0.0000487 0.0012843

   ATOM             15 h 
                  dx        dy        dz
  15 h     dx  0.2163571
           dy  0.0050639 0.0277494
           dz -0.1531709-0.0059562 0.2021384
 

   *** projected hessian written onto $hessian (projected), file=<hessian> ***

 dipole moment in principle axis system (a.u.) :
    -0.9335978857     0.2101133946     0.7264818114
 norm :   1.20146929758020     

 rotational constants b for rotations around axis of inertia
 and optical intensities for (1 <-- 0) transition

   b   :     0.0332534768     0.0272598925     0.1087969697   (cm**(-1))
   b   :         996.9142         817.2310        3261.6511     (MHz)
  int. :     0.8716050121     0.0441476386     0.5277758223     (a.u.)

   x   :     0.9647176177    -0.2114945933     0.1568118463
   y   :     0.2024445969     0.9766593555     0.0717822295
   z   :    -0.1683333102    -0.0375038705     0.9850164244

   ***  normal modes written onto $vibrational normal modes, file=<vib_normal_modes>  ***

 keyword $vibrational reduced masses missing in file <control>


   ***  vibrational spectroscopic data written onto$vibrational spectrum   
        file=<vibspectrum>  ***

          ---------------------------------------------------
          NORMAL MODES and VIBRATIONAL FREQUENCIES (cm**(-1))
          ---------------------------------------------------

 imaginary wave numbers indicate a negative curvature of the energy surface.
 zero frequency modes have no physical meaning except being generators of
 translations and rotations. each vibrational normal mode - given in terms of
 cartesian displacement vectors of all atoms - has been normalized to unity.
 to obtain mass-weigthed normal coordinates in a.u. divide the tabulated
 modes by sqrt(reduced mass * 1822.88853).
 band intensities or cross sections refer to independent non-degenerate normal
 modes, that is, the intensities of degenerate modes have yet to be added.
 dDIP/dQ is the normal mode derivative of the dipole moment.


       mode               1        2        3        4        5        6

     frequency           0.00     0.00     0.00     0.00     0.00     0.00

     symmetry                                                             

        IR                -        -        -        -        -        - 
|dDIP/dQ|   (a.u.)     0.0000   0.0000   0.0000   0.0000   0.0000   0.0000
intensity (km/mol)       0.00     0.00     0.00     0.00     0.00     0.00
intensity (  %   )       0.00     0.00     0.00     0.00     0.00     0.00
 
       RAMAN              -        -        -        -        -        - 
 
  1   c           x  -0.06627  0.22626 -0.02657  0.08473  0.21958  0.19405
                  y   0.30886 -0.10746  0.03773 -0.02798  0.01524  0.20051
                  z  -0.00129  0.04679 -0.08466  0.06321 -0.20681  0.04170
  2   c           x  -0.06631  0.19034  0.02566  0.04196  0.14589  0.17405
                  y   0.37634  0.04882  0.10127  0.08794  0.02554  0.04263
                  z   0.00068  0.01248 -0.02610  0.02027 -0.28644  0.01530
  3   c           x  -0.06530  0.13940  0.10174 -0.01832  0.03988  0.14439
                  y   0.29226  0.13494  0.05081  0.03067  0.01782 -0.03926
                  z  -0.00140  0.02577 -0.04422  0.03248 -0.26291  0.02012
  4   c           x  -0.06291  0.12639  0.12523 -0.03302  0.00971  0.13420
                  y   0.14117  0.06231 -0.06309 -0.14280 -0.00019  0.03915
                  z  -0.00493  0.07243 -0.12093  0.08803 -0.15932  0.05255
  5   c           x  -0.06389  0.16108  0.07286  0.00794  0.08234  0.15475
                  y   0.07204 -0.09392 -0.12779 -0.26034 -0.01066  0.19705
                  z  -0.00733  0.10800 -0.18036  0.13131 -0.07882  0.07841
  6   c           x  -0.06506  0.21170 -0.00308  0.06779  0.18794  0.18444
                  y   0.15693 -0.17885 -0.07664 -0.20190 -0.00283  0.27774
                  z  -0.00529  0.09450 -0.16170  0.11866 -0.10312  0.07322
  7   s           x  -0.06952  0.05440  0.21750 -0.12083 -0.12848  0.10216
                  y   0.03484  0.17567 -0.12644 -0.21383 -0.00986 -0.06884
                  z  -0.01058  0.09503 -0.14447  0.10174 -0.13099  0.05211
  8   o           x   0.08110  0.16881  0.33702  0.06419 -0.11196 -0.01935
                  y  -0.04603  0.11681 -0.18945 -0.31288 -0.01986 -0.00703
                  z   0.04476  0.00365 -0.16119  0.15484 -0.06599  0.18658
  9   h           x   0.08586  0.14154  0.38576  0.03329 -0.17482 -0.04042
                  y  -0.13136  0.14141 -0.24707 -0.39048 -0.02884 -0.02785
                  z   0.04408  0.02059 -0.19110  0.17700 -0.02508  0.20079
 10   o           x  -0.05504  0.03870  0.26785 -0.13481 -0.18169  0.07559
                  y   0.13913  0.33368 -0.03679 -0.06061  0.00453 -0.22998
                  z  -0.00197  0.03901 -0.06748  0.04969 -0.23113  0.03109
 11   h           x  -0.06231  0.14980  0.09228 -0.00498  0.05689  0.14652
                  y  -0.04650 -0.14842 -0.21690 -0.39566 -0.02474  0.25611
                  z  -0.01021  0.14459 -0.24012  0.17448  0.00178  0.10337
 12   h           x  -0.06492  0.23997 -0.04396  0.10147  0.24575  0.20003
                  y   0.10469 -0.30090 -0.12594 -0.29196 -0.01082  0.40101
                  z  -0.00677  0.12108 -0.20722  0.15207 -0.04119  0.09385
 13   h           x  -0.06748  0.26566 -0.08625  0.13121  0.30221  0.21753
                  y   0.37485 -0.17431  0.07740  0.01718  0.02131  0.26406
                  z   0.00019  0.03662 -0.07038  0.05346 -0.22548  0.03752
 14   h           x  -0.06731  0.20181  0.00707  0.05529  0.17088  0.18168
                  y   0.49478  0.10401  0.19038  0.22338  0.03962 -0.01711
                  z   0.00378 -0.02462  0.03386 -0.02289 -0.36715 -0.00926
 15   h           x  -0.06540  0.11028  0.14396 -0.05300 -0.01976  0.12827
                  y   0.34131  0.25714  0.09787  0.11759  0.02546 -0.16256
                  z   0.00000  0.00000  0.00000  0.00000 -0.32311  0.00000

reduced mass(g/mol)     6.071    7.978    9.136    7.634    7.471    6.753


       mode               7        8        9       10       11       12

     frequency          15.73   123.69   184.35   279.41   302.19   361.64

     symmetry            a        a        a        a        a        a   

        IR               YES      YES      YES      YES      YES      YES
|dDIP/dQ|   (a.u.)     0.0011   0.0008   0.0017   0.0031   0.0045   0.0035
intensity (km/mol)       2.29     1.12     5.20    17.28    36.79    22.13
intensity (  %   )       1.33     0.65     3.03    10.06    21.42    12.88
 
       RAMAN             YES      YES      YES      YES      YES      YES
 
  1   c           x   0.00384 -0.03990 -0.12406  0.01141 -0.01975 -0.03169
                  y  -0.01567 -0.25529  0.06537 -0.14021 -0.00203 -0.07228
                  z  -0.00544 -0.04163  0.05354  0.11182 -0.06849 -0.07068
  2   c           x  -0.00579 -0.02283 -0.00934  0.01534  0.00675  0.03006
                  y  -0.20458 -0.05547 -0.00264  0.04855 -0.01023  0.07325
                  z  -0.02261 -0.01733  0.17056  0.11965 -0.04184 -0.00791
  3   c           x  -0.02173  0.00303  0.17319  0.04350  0.03378  0.10031
                  y  -0.18396  0.19925 -0.08311  0.14726  0.01023  0.02629
                  z  -0.01815 -0.01801  0.11695  0.10412 -0.04208 -0.02030
  4   c           x  -0.02925  0.00972  0.21251  0.05027  0.03202  0.08931
                  y   0.01274  0.26051 -0.08937  0.05945 -0.00128 -0.05009
                  z   0.00636 -0.03332 -0.02549  0.03365 -0.02914 -0.01344
  5   c           x  -0.01812 -0.00877  0.11376  0.06144  0.00880  0.04413
                  y   0.20387  0.16805 -0.07768  0.15914 -0.00478  0.09235
                  z   0.02072 -0.05827 -0.13923  0.05666 -0.07122 -0.09456
  6   c           x  -0.00296 -0.03423 -0.07408  0.02659 -0.01813 -0.02119
                  y   0.19617 -0.09898  0.00265  0.02774  0.01379  0.00358
                  z   0.01743 -0.05994 -0.10313  0.06913 -0.07381 -0.09653
  7   s           x  -0.07362  0.00179 -0.00177 -0.03383 -0.00787 -0.03803
                  y  -0.02426  0.00720  0.01654 -0.06920 -0.03323 -0.02834
                  z   0.01319 -0.04647  0.03548 -0.02670  0.03832  0.10889
  8   o           x   0.24970  0.06989 -0.01885  0.00227 -0.02144 -0.09760
                  y  -0.19657 -0.04186  0.01472 -0.07439 -0.03730 -0.01168
                  z  -0.01118  0.30018  0.14364 -0.27438  0.02247 -0.05519
  9   h           x   0.26662  0.11892 -0.22072 -0.55563 -0.74862  0.62283
                  y  -0.30770 -0.29121  0.06031  0.39314  0.34440 -0.22111
                  z  -0.01936  0.27496  0.27313  0.07597  0.48551 -0.51898
 10   o           x  -0.06107 -0.00376 -0.18097 -0.06511  0.05257 -0.02798
                  y   0.25555 -0.09335  0.08603 -0.05040  0.07742  0.00974
                  z  -0.01195 -0.04022 -0.29476 -0.07919  0.13494  0.11654
 11   h           x  -0.02532 -0.00175  0.15869  0.05717  0.02160  0.07016
                  y   0.37099  0.22864 -0.09661  0.25464 -0.01623  0.21837
                  z   0.03644 -0.07998 -0.28044  0.06291 -0.11088 -0.17838
 12   h           x   0.00533 -0.04663 -0.17012 -0.00313 -0.02212 -0.04061
                  y   0.36038 -0.21938  0.03446  0.02007  0.02897  0.01332
                  z   0.03140 -0.07714 -0.20588  0.03718 -0.07822 -0.11853
 13   h           x   0.01792 -0.05639 -0.24538 -0.00736 -0.03691 -0.07647
                  y  -0.02561 -0.52524  0.15925 -0.35040 -0.00621 -0.16725
                  z  -0.00879 -0.04278  0.08274  0.11237 -0.06475 -0.06229
 14   h           x  -0.00100 -0.02896 -0.05185  0.01308 -0.00275  0.00689
                  y  -0.36248 -0.14165  0.02206  0.05870 -0.02381  0.16480
                  z  -0.03773  0.00241  0.30850  0.12838 -0.01164  0.06674
 15   h           x  -0.03369  0.01627  0.27807  0.08426  0.02713  0.10692
                  y  -0.30201  0.26715 -0.10285  0.20794  0.02512  0.05278
                  z  -0.03433 -0.00260  0.21987  0.14590 -0.04598 -0.01044

reduced mass(g/mol)     5.508    5.188    5.595    4.045    1.783    2.608


       mode              13       14       15       16       17       18

     frequency         398.10   420.68   447.58   547.24   621.31   693.82

     symmetry            a        a        a        a        a        a   

        IR               YES      YES      YES      YES      YES      YES
|dDIP/dQ|   (a.u.)     0.0016   0.0035   0.0020   0.0045   0.0003   0.0025
intensity (km/mol)       4.62    21.44     6.84    35.30     0.17    11.31
intensity (  %   )       2.69    12.48     3.98    20.56     0.10     6.59
 
       RAMAN             YES      YES      YES      YES      YES      YES
 
  1   c           x   0.00093  0.03533 -0.00975  0.00190 -0.14609 -0.01493
                  y  -0.03459 -0.05480  0.18704 -0.16327  0.00768 -0.10676
                  z   0.01650  0.14924  0.08193  0.08369  0.01973 -0.06557
  2   c           x   0.00354 -0.01461  0.01996 -0.03714 -0.28402  0.05561
                  y  -0.17209  0.12061 -0.13249  0.12545 -0.00296  0.16119
                  z   0.01488  0.10348  0.09355  0.04726 -0.19499  0.00584
  3   c           x   0.01106 -0.02309  0.09940  0.00885  0.16485  0.05784
                  y   0.21656 -0.09315 -0.04039 -0.06926  0.01384 -0.12754
                  z   0.01817  0.07870  0.05549  0.01010 -0.27944  0.00147
  4   c           x   0.01561 -0.00453  0.08926  0.02522  0.13528  0.01500
                  y  -0.02920 -0.06499  0.28211 -0.26325  0.00851  0.16657
                  z  -0.00882 -0.05518 -0.04670 -0.09543 -0.01722  0.07084
  5   c           x   0.01930  0.06778  0.12627  0.10752  0.25085 -0.04501
                  y  -0.17124  0.11840 -0.05181 -0.06050  0.00325 -0.11763
                  z  -0.00709  0.04744 -0.04945 -0.02792  0.18677  0.02361
  6   c           x   0.00568  0.06605  0.03529  0.04062 -0.18689 -0.05061
                  y   0.20911 -0.06479 -0.11224  0.11635 -0.01638  0.15999
                  z   0.00484  0.06914 -0.02674 -0.00177  0.30087  0.02951
  7   s           x  -0.00291  0.01829 -0.14123 -0.12211  0.01102  0.00111
                  y  -0.02494 -0.13404  0.03923  0.12071 -0.01435  0.01545
                  z  -0.01979 -0.23975 -0.10164 -0.12727  0.00289 -0.01431
  8   o           x  -0.07214 -0.36818 -0.00705  0.14497 -0.00223 -0.02416
                  y  -0.00356 -0.04681 -0.04870  0.05238  0.01261 -0.03638
                  z   0.00782  0.15040 -0.06467  0.05841 -0.00193 -0.01108
  9   h           x   0.17827  0.10659  0.11517 -0.12146  0.01973 -0.00617
                  y  -0.10996 -0.37774 -0.16999 -0.21875  0.01839 -0.01283
                  z  -0.15270 -0.15289 -0.14184  0.24084 -0.01642 -0.02432
 10   o           x   0.02201  0.22057 -0.00182 -0.00944  0.01589  0.00774
                  y   0.04426  0.35452 -0.06557 -0.11230  0.00739  0.00354
                  z   0.00912  0.01308  0.18550  0.15934 -0.01021 -0.00733
 11   h           x   0.02330  0.03953  0.13524  0.09075  0.30292 -0.02087
                  y  -0.40071  0.29924 -0.28157  0.19878  0.00568 -0.52543
                  z  -0.01331  0.13294 -0.07623  0.01629  0.01482 -0.04671
 12   h           x  -0.00705  0.01931 -0.03324 -0.03412 -0.29854  0.00404
                  y   0.46416 -0.11900 -0.34165  0.46455 -0.02911 -0.00863
                  z  -0.00076  0.01848 -0.10806 -0.07121  0.17953  0.08369
 13   h           x  -0.00504  0.02884 -0.06679 -0.00865  0.27029 -0.01219
                  y  -0.09356 -0.10724  0.38654 -0.22494  0.01301 -0.55412
                  z   0.01679  0.15006  0.09883  0.08504 -0.07490 -0.07370
 14   h           x   0.00466  0.00268  0.01132 -0.03161 -0.33941  0.03277
                  y  -0.40288  0.30280 -0.37260  0.47558 -0.03113  0.00638
                  z   0.01170  0.05083  0.12583  0.03257 -0.01453  0.08194
 15   h           x   0.02533  0.05164  0.17657  0.08688  0.26426  0.01451
                  y   0.46906 -0.15678 -0.23026  0.16347 -0.00383 -0.49385
                  z   0.04037  0.15165  0.12891  0.09880 -0.17511 -0.05641

reduced mass(g/mol)     2.844    9.580    4.969    5.256    6.398    2.628


       mode              19       20       21       22       23       24

     frequency         710.40   739.76   768.92   865.74   949.90   999.97

     symmetry            a        a        a        a        a        a   

        IR               YES      YES      YES      YES      YES      YES
|dDIP/dQ|   (a.u.)     0.0030   0.0098   0.0043   0.0002   0.0013   0.0004
intensity (km/mol)      16.25   171.72    32.36     0.07     2.90     0.28
intensity (  %   )       9.46   100.00    18.85     0.04     1.69     0.17
 
       RAMAN             YES      YES      YES      YES      YES      YES
 
  1   c           x  -0.05084  0.01262 -0.00353 -0.00022  0.00057 -0.00012
                  y   0.02043 -0.03063  0.09428  0.01829 -0.09951 -0.05725
                  z  -0.22183  0.04935 -0.01027  0.00147  0.00172  0.00059
  2   c           x   0.21380 -0.06249  0.01420 -0.00042  0.00044  0.00115
                  y  -0.06757 -0.02974  0.01856  0.07804  0.02010 -0.04859
                  z   0.02097 -0.02020  0.00405  0.00152  0.00069 -0.00135
  3   c           x   0.19012 -0.03956  0.01215 -0.00166  0.00110 -0.00218
                  y   0.03560 -0.01224  0.06137  0.06128  0.08419  0.08628
                  z   0.02929 -0.01665  0.00324  0.00192  0.00004  0.00197
  4   c           x   0.05195 -0.00975  0.00434  0.00002  0.00142  0.00077
                  y  -0.08213  0.00016 -0.15502  0.00082 -0.05066 -0.00890
                  z   0.21946 -0.04194  0.00721  0.00151  0.00218  0.00214
  5   c           x  -0.15617  0.02568 -0.00926  0.00138 -0.00179  0.00341
                  y   0.01971 -0.01747  0.08501 -0.08253  0.10118 -0.08469
                  z   0.09386 -0.00658  0.00750 -0.00298  0.00107 -0.00301
  6   c           x  -0.17350  0.03306 -0.01101  0.00152  0.00067 -0.00110
                  y  -0.07245 -0.02157  0.02149 -0.06883 -0.03332  0.11784
                  z   0.09043 -0.00302  0.00695 -0.00243 -0.00167  0.00220
  7   s           x  -0.03487  0.12361 -0.00233  0.00052 -0.00075 -0.00001
                  y   0.03371  0.32817  0.03637  0.00276  0.00541  0.00127
                  z  -0.09924  0.05756 -0.01567 -0.00008 -0.00299 -0.00067
  8   o           x  -0.00910 -0.24392 -0.00211 -0.00180  0.00267 -0.00017
                  y  -0.02387 -0.56625 -0.02714 -0.00411  0.00266 -0.00089
                  z   0.00185 -0.03885  0.00635  0.00012  0.00036  0.00019
  9   h           x  -0.07350 -0.25967 -0.04561 -0.00372 -0.01623 -0.00503
                  y  -0.13481 -0.26560 -0.09056 -0.00255 -0.04615 -0.00958
                  z   0.04625 -0.04618  0.03664  0.00129  0.01483  0.00366
 10   o           x   0.02589  0.04196  0.00300  0.00114 -0.00163  0.00033
                  y  -0.01034 -0.06826 -0.00982 -0.00018  0.00003  0.00067
                  z   0.00840 -0.04422  0.01027 -0.00002  0.00357  0.00038
 11   h           x  -0.10066  0.01597 -0.00198 -0.00677  0.00826 -0.00347
                  y   0.33472  0.16994 -0.22563  0.53831 -0.57108  0.45349
                  z  -0.10054  0.03065 -0.01101  0.01189 -0.01977  0.01018
 12   h           x   0.01762 -0.01065  0.00591 -0.00354 -0.00340  0.00062
                  y   0.18449  0.26559 -0.58637  0.43943  0.22069 -0.62537
                  z   0.30693 -0.04222  0.00651  0.00790  0.00213 -0.01916
 13   h           x  -0.06952  0.04480 -0.00138 -0.00129 -0.00675 -0.00560
                  y   0.36309  0.28608 -0.50461 -0.10085  0.54071  0.30883
                  z  -0.20904  0.04709 -0.02157 -0.00047  0.01522  0.00862
 14   h           x   0.12836 -0.04504  0.01294  0.00507  0.00111 -0.00073
                  y   0.16901  0.28122 -0.51943 -0.54385 -0.08171  0.24184
                  z   0.30462 -0.08177  0.00951 -0.01557 -0.00052  0.00484
 15   h           x   0.04228  0.01011  0.00814 -0.00335 -0.00422 -0.01110
                  y   0.29870  0.22340 -0.14134 -0.43425 -0.53908 -0.46215
                  z  -0.12090  0.04537 -0.00796 -0.01611 -0.02707 -0.02608

reduced mass(g/mol)     4.445   10.944    1.573    1.248    1.354    1.385


       mode              25       26       27       28       29       30

     frequency        1014.86  1019.56  1051.88  1099.41  1109.86  1161.46

     symmetry            a        a        a        a        a        a   

        IR               YES      YES      YES      YES      YES      YES
|dDIP/dQ|   (a.u.)     0.0005   0.0009   0.0013   0.0029   0.0030   0.0076
intensity (km/mol)       0.38     1.32     2.90    15.36    15.84   102.03
intensity (  %   )       0.22     0.77     1.69     8.94     9.22    59.42
 
       RAMAN             YES      YES      YES      YES      YES      YES
 
  1   c           x  -0.00295  0.07896 -0.03893  0.06771 -0.04826 -0.00044
                  y  -0.09379 -0.02821  0.00171  0.00102  0.00040  0.00089
                  z  -0.02313  0.35832 -0.15151 -0.01751 -0.01782 -0.00276
  2   c           x   0.00535 -0.08983 -0.20925 -0.02304  0.11693  0.00912
                  y   0.11355  0.02640 -0.00167 -0.00219 -0.00356 -0.00127
                  z   0.00390 -0.01324 -0.00028 -0.02533  0.08889  0.00475
  3   c           x  -0.01368  0.28798  0.05913  0.01849  0.07359  0.00480
                  y  -0.07588 -0.01281  0.00166  0.00310  0.00748 -0.00302
                  z   0.01260 -0.25974  0.04752  0.07954 -0.09140 -0.00159
  4   c           x  -0.00257  0.02382  0.01249  0.00951 -0.08415 -0.00904
                  y   0.00635 -0.00441 -0.00305  0.00221  0.00350  0.02244
                  z  -0.01128  0.10180  0.06554 -0.12397 -0.27093 -0.03071
  5   c           x   0.01727 -0.36387 -0.03133 -0.09748 -0.03312 -0.00310
                  y  -0.00598 -0.00502 -0.00186  0.00050 -0.00086 -0.00392
                  z   0.00588 -0.09780  0.06410 -0.07449  0.06426  0.00163
  6   c           x  -0.00641  0.07664  0.19379 -0.05726 -0.02490 -0.00614
                  y   0.04765  0.01486  0.00417 -0.00272 -0.00200 -0.00086
                  z   0.00707 -0.06779 -0.08808  0.10100  0.04085  0.00729
  7   s           x   0.00080 -0.01299 -0.00334  0.01357  0.01542  0.00956
                  y  -0.00161 -0.00051  0.00006 -0.00273 -0.00165 -0.00451
                  z   0.00106 -0.00427 -0.00913  0.00083  0.02128  0.03242
  8   o           x  -0.00057  0.00285  0.00017  0.00231  0.00325 -0.00860
                  y  -0.00117  0.00619  0.00191 -0.00118 -0.00961  0.05158
                  z   0.00042 -0.00106 -0.00168  0.00449  0.01296 -0.05460
  9   h           x   0.00732 -0.01990 -0.00828  0.02730  0.06411 -0.32687
                  y   0.01875 -0.02715 -0.01986  0.06256  0.17815 -0.91627
                  z  -0.00562  0.01556  0.00488 -0.01443 -0.03465  0.19527
 10   o           x  -0.00066  0.01890  0.00101 -0.03366 -0.01682  0.01201
                  y  -0.00071 -0.00181  0.00033  0.00247  0.00132  0.00187
                  z  -0.00034 -0.00670 -0.00034  0.02298  0.00912 -0.01312
 11   h           x   0.01564 -0.38614 -0.12654 -0.04287 -0.23091 -0.01745
                  y   0.08120  0.04630 -0.00673  0.00803 -0.02150  0.01592
                  z   0.01109 -0.06569  0.38935 -0.28906  0.67532  0.04513
 12   h           x   0.00049  0.07582  0.46366  0.15175  0.00108 -0.00312
                  y  -0.28354 -0.07351 -0.00430 -0.00413  0.00563  0.00187
                  z   0.00334 -0.05173  0.18198  0.33944  0.07146  0.01135
 13   h           x  -0.00419  0.05948 -0.04946  0.44024 -0.30709 -0.00191
                  y   0.52011  0.10895  0.01016  0.00324 -0.00687 -0.00011
                  z  -0.01223  0.37687 -0.16771 -0.09988  0.04480 -0.00194
 14   h           x   0.01144 -0.08797 -0.33138  0.02673  0.01943  0.00739
                  y  -0.62487 -0.14753 -0.00750  0.01996  0.00284  0.00005
                  z  -0.01790  0.02809  0.34806 -0.19690  0.43738  0.01230
 15   h           x  -0.00083  0.26354  0.30760  0.44070  0.17723  0.04082
                  y   0.46607  0.14899 -0.02070 -0.04627 -0.03316  0.02347
                  z   0.04554 -0.30108  0.31306  0.52224 -0.00360  0.03624

reduced mass(g/mol)     1.352    6.066    2.429    1.664    2.426    1.154


       mode              31       32       33       34       35       36

     frequency        1178.53  1192.54  1194.74  1332.20  1369.71  1482.81

     symmetry            a        a        a        a        a        a   

        IR               YES      YES      YES      YES      YES      YES
|dDIP/dQ|   (a.u.)     0.0001   0.0082   0.0043   0.0009   0.0011   0.0026
intensity (km/mol)       0.03   119.88    33.23     1.29     2.01    12.24
intensity (  %   )       0.02    69.81    19.35     0.75     1.17     7.13
 
       RAMAN             YES      YES      YES      YES      YES      YES
 
  1   c           x   0.06552  0.00027  0.00349  0.02196  0.28987  0.14690
                  y   0.00073 -0.00016 -0.00012  0.00011  0.00317  0.00191
                  z  -0.01797 -0.01029 -0.00629 -0.00185 -0.06928 -0.03570
  2   c           x  -0.02107 -0.00925  0.01185  0.04163 -0.08491 -0.05113
                  y  -0.00053 -0.00078  0.00081  0.00083 -0.00658  0.00297
                  z   0.04337  0.04950 -0.04915 -0.03802  0.25304 -0.13462
  3   c           x  -0.01255 -0.02271  0.03320 -0.00666 -0.20191 -0.03735
                  y  -0.00054  0.00228  0.00115  0.00253  0.00395 -0.00354
                  z   0.00713 -0.00024  0.04119 -0.05200 -0.22711  0.10162
  4   c           x   0.00544 -0.00279  0.00294 -0.14556  0.24992  0.15752
                  y   0.00024 -0.00773 -0.00436 -0.00254  0.00555  0.00241
                  z  -0.00654 -0.08469  0.02775  0.03605 -0.04679 -0.04287
  5   c           x  -0.01207  0.00154 -0.01173  0.01891 -0.07587 -0.08512
                  y   0.00017  0.00374 -0.00029 -0.00149 -0.00720  0.00123
                  z  -0.00613 -0.06505  0.04781  0.03832  0.29812 -0.05854
  6   c           x  -0.02839  0.01839 -0.03451  0.05168 -0.17825  0.02039
                  y   0.00014 -0.00036  0.00101  0.00021  0.00350 -0.00301
                  z  -0.02226  0.06771 -0.04409  0.01847 -0.20011  0.14209
  7   s           x  -0.00293 -0.18204 -0.04775  0.00081 -0.00932 -0.00575
                  y   0.00034  0.01996  0.00490 -0.00047  0.00032  0.00064
                  z   0.00105  0.09985  0.01869  0.00331 -0.00121 -0.00117
  8   o           x  -0.00016  0.01125  0.00349  0.00160 -0.00069 -0.00067
                  y  -0.00019 -0.00393 -0.00093  0.00037  0.00010  0.00022
                  z  -0.00022  0.00769  0.00269  0.00157 -0.00324 -0.00132
  9   h           x   0.00118  0.03117  0.01323 -0.00216  0.00685  0.00199
                  y  -0.00078  0.14102  0.05233  0.01499 -0.00906 -0.01078
                  z  -0.00111 -0.01531 -0.00665  0.00380 -0.00754 -0.00330
 10   o           x   0.00365  0.34866  0.08759  0.00804  0.00893 -0.00069
                  y  -0.00056 -0.04037 -0.00985  0.00014 -0.00172 -0.00116
                  z  -0.00083 -0.18692 -0.04648 -0.00958  0.00494  0.00605
 11   h           x  -0.04834  0.10084 -0.13340  0.19721  0.14273 -0.15575
                  y  -0.00272 -0.00557 -0.01762  0.01586  0.01608 -0.00496
                  z   0.10756 -0.39933  0.44423 -0.52158 -0.38737  0.10573
 12   h           x  -0.28127  0.40220 -0.37693 -0.23880  0.09525 -0.35682
                  y   0.00478 -0.00999  0.00714  0.00394 -0.00116  0.00336
                  z  -0.29273  0.48310 -0.41341 -0.29909  0.09287 -0.23772
 13   h           x   0.70092  0.01895  0.05432 -0.20971 -0.38328 -0.66214
                  y   0.00918 -0.00108  0.00029 -0.00188 -0.00390 -0.00823
                  z  -0.16258 -0.01423 -0.01835  0.05118  0.08281  0.14728
 14   h           x  -0.15893 -0.09428  0.13568 -0.09623  0.03327 -0.21663
                  y  -0.01511 -0.00890  0.01601 -0.00964  0.00697 -0.01118
                  z   0.48446  0.32046 -0.45178  0.42078 -0.13364  0.33749
 15   h           x  -0.13849 -0.20753  0.31798  0.38574  0.28472 -0.20785
                  y   0.00323 -0.01134 -0.02140 -0.01221 -0.02183  0.00300
                  z  -0.12385 -0.19277  0.34140  0.35524  0.27057 -0.05339

reduced mass(g/mol)     1.104    4.948    1.369    1.382    6.335    2.256


       mode              37       38       39       40       41       42

     frequency        1515.32  1648.40  1650.68  3185.65  3193.90  3201.49

     symmetry            a        a        a        a        a        a   

        IR               YES      YES      YES      YES      YES      YES
|dDIP/dQ|   (a.u.)     0.0016   0.0003   0.0002   0.0003   0.0012   0.0020
intensity (km/mol)       4.42     0.21     0.08     0.13     2.41     7.10
intensity (  %   )       2.57     0.12     0.05     0.08     1.40     4.14
 
       RAMAN             YES      YES      YES      YES      YES      YES
 
  1   c           x   0.02831  0.06839  0.36512 -0.01066 -0.00813 -0.00674
                  y  -0.00178 -0.00263  0.00474  0.00089  0.00047  0.00075
                  z   0.09367  0.14488 -0.10414 -0.04775 -0.02668 -0.04065
  2   c           x   0.08047 -0.00249 -0.19469  0.03291  0.04449 -0.03857
                  y   0.00296  0.00719 -0.00488  0.00000  0.00003 -0.00012
                  z  -0.11466 -0.29682  0.15756  0.01096  0.01407 -0.00900
  3   c           x  -0.12761  0.16879  0.21524 -0.01045 -0.01401  0.02982
                  y   0.00050 -0.00523  0.00184 -0.00030 -0.00047  0.00095
                  z  -0.06058  0.27086  0.03326  0.00870  0.01240 -0.02645
  4   c           x   0.03551 -0.07723 -0.32802 -0.00038  0.00115  0.00056
                  y  -0.00139  0.00174 -0.00543 -0.00001 -0.00001 -0.00005
                  z   0.11851 -0.14572  0.09053  0.00112 -0.00121 -0.00150
  5   c           x   0.08469  0.00972  0.17855  0.03358 -0.05412 -0.04056
                  y   0.00323 -0.00662  0.00460  0.00014 -0.00019 -0.00012
                  z  -0.11623  0.28864 -0.18746  0.00935 -0.01605 -0.01341
  6   c           x  -0.12638 -0.17188 -0.20468 -0.03299  0.02250 -0.02027
                  y   0.00021  0.00515 -0.00179 -0.00094  0.00054 -0.00070
                  z  -0.06014 -0.28121  0.00712  0.03091 -0.01749  0.02309
  7   s           x  -0.00303  0.00112  0.00848  0.00005 -0.00015  0.00001
                  y   0.00043  0.00015 -0.00056  0.00002 -0.00003 -0.00004
                  z  -0.00296  0.00056  0.00053 -0.00001  0.00002 -0.00008
  8   o           x  -0.00114  0.00102  0.00015 -0.00008  0.00013  0.00012
                  y  -0.00051  0.00010 -0.00061 -0.00001  0.00004  0.00005
                  z  -0.00127  0.00167  0.00258  0.00002 -0.00006 -0.00000
  9   h           x  -0.00054  0.00219 -0.00146  0.00014 -0.00024 -0.00006
                  y  -0.00351  0.00402  0.01310 -0.00014  0.00020  0.00028
                  z  -0.00087 -0.00179  0.00447  0.00033 -0.00029 -0.00020
 10   o           x   0.00436 -0.00077 -0.00303  0.00004  0.00001 -0.00019
                  y  -0.00024 -0.00014  0.00197  0.00000 -0.00002  0.00001
                  z  -0.00217 -0.00119 -0.00783  0.00001  0.00019 -0.00008
 11   h           x  -0.09282  0.20181  0.03074 -0.39302  0.62595  0.45802
                  y  -0.01511  0.01056 -0.01167 -0.00241  0.00383  0.00264
                  z   0.48599 -0.28034  0.32084 -0.12091  0.19345  0.14338
 12   h           x   0.26475  0.31474 -0.03561  0.39451 -0.24555  0.25252
                  y  -0.00598 -0.00317 -0.00295  0.01138 -0.00694  0.00755
                  z   0.37753  0.22907  0.22197 -0.36736  0.22485 -0.23967
 13   h           x   0.00248  0.00369 -0.46111  0.12838  0.07394  0.10098
                  y  -0.00247 -0.00477 -0.00468 -0.01037 -0.00578 -0.00822
                  z   0.12141  0.18195  0.08017  0.56508  0.31426  0.45838
 14   h           x  -0.08978 -0.19406 -0.08600 -0.39378 -0.51988  0.43076
                  y  -0.01165 -0.00907  0.00483 -0.00016 -0.00009  0.00028
                  z   0.46846  0.28608 -0.26495 -0.12296 -0.16180  0.13052
 15   h           x   0.25908 -0.31193 -0.04608  0.11972  0.16511 -0.33878
                  y  -0.00763  0.00299  0.00892  0.00381  0.00507 -0.01080
                  z   0.35765 -0.20965 -0.25886 -0.11274 -0.15665  0.32078

reduced mass(g/mol)     2.162    5.795    6.284    1.085    1.088    1.092


       mode              43       44       45

     frequency        3209.60  3214.51  3819.61

     symmetry            a        a        a   

        IR               YES      YES      YES
|dDIP/dQ|   (a.u.)     0.0013   0.0030   0.0077
intensity (km/mol)       2.95    15.48   105.65
intensity (  %   )       1.72     9.01    61.53
 
       RAMAN             YES      YES      YES
 
  1   c           x  -0.00904 -0.00907  0.00004
                  y   0.00048  0.00082  0.00000
                  z  -0.02739 -0.04291 -0.00002
  2   c           x   0.01382 -0.04713 -0.00002
                  y  -0.00014  0.00005 -0.00001
                  z   0.00791 -0.01471  0.00009
  3   c           x   0.04001 -0.03325 -0.00008
                  y   0.00140 -0.00119  0.00006
                  z  -0.03944  0.03455 -0.00023
  4   c           x  -0.00246  0.00087 -0.00012
                  y  -0.00004  0.00005  0.00011
                  z   0.00056  0.00094  0.00016
  5   c           x   0.03068  0.01486  0.00007
                  y   0.00004  0.00003  0.00002
                  z   0.01184  0.00598 -0.00012
  6   c           x   0.03676  0.02707  0.00000
                  y   0.00109  0.00074 -0.00001
                  z  -0.03454 -0.02354  0.00000
  7   s           x   0.00020 -0.00008  0.00024
                  y   0.00000  0.00004 -0.00025
                  z  -0.00007  0.00012  0.00024
  8   o           x  -0.00004 -0.00007  0.03452
                  y  -0.00001 -0.00007  0.00252
                  z   0.00006 -0.00001  0.05200
  9   h           x   0.00027 -0.00033 -0.54822
                  y   0.00006 -0.00018 -0.03380
                  z   0.00018 -0.00041 -0.83331
 10   o           x  -0.00013  0.00019 -0.00033
                  y   0.00004 -0.00003 -0.00002
                  z  -0.00030  0.00009  0.00012
 11   h           x  -0.34774 -0.16226 -0.00056
                  y  -0.00206 -0.00082 -0.00011
                  z  -0.11076 -0.05230  0.00009
 12   h           x  -0.41057 -0.28915  0.00012
                  y  -0.01197 -0.00841  0.00001
                  z   0.38161  0.26643 -0.00026
 13   h           x   0.07416  0.10535 -0.00003
                  y  -0.00555 -0.00866  0.00001
                  z   0.31189  0.46591 -0.00018
 14   h           x  -0.16432  0.51714 -0.00030
                  y   0.00016 -0.00002 -0.00007
                  z  -0.05460  0.15952 -0.00025
 15   h           x  -0.46344  0.38582  0.00007
                  y  -0.01487  0.01259 -0.00002
                  z   0.44362 -0.37138  0.00041

reduced mass(g/mol)     1.095    1.098    1.066
 

         **************************************************************
         *                                                            *
         *  zero point VIBRATIONAL energy  :      0.1099834  Hartree  *
         *    SCF-energy                   :   -780.4409918           *
         *    SCF + E(vib0)                :   -780.3310084           *
         *                                                            *
         **************************************************************




 time elapsed for vibrational analysis     0.16 sec


    ------------------------------------------------------------------------
         total  cpu-time : 14 hours 52 minutes and 23 seconds
         total wall-time :  1 hours 52 minutes and 43 seconds
    ------------------------------------------------------------------------

   ****  force : all done  ****


    2017-09-21 19:39:59.422 

aoforce ended normally 
