   This run of MOLCAS is using the pymolcas driver

                             OPE
                             OPE          NMOL  CASOP  ENMOLC A   SO
                 OPE        NMOLC        AS  OP EN  MO LC     AS  OP
                OPENM       OL CA        SO  PE NM  OL CA     SOP EN
                OP EN      MO   LC       AS  OP ENMOL  CASO   PENMOL
                OP  EN     MO   LC       AS  OP EN     MO     LC ASO
               OP   E  NMOL  C  AS       OP  EN MO     LC     AS  OP
               OP  E   NMO   LC AS        OPEN  MO     LCASOP EN   M
               O  PEN   MO  LCA  SO
            OPE   NMO   L   CAS    OP
        OPENMOL  CASOP     ENMOL   CASOPE
     OPENMOLCA   SOPENMOLCASOPEN   MOLCASOPE
    OPENMOLCAS   OP           EN   MOL    CAS
    OPENMOLCAS       OP  ENM        O     LCA
    OPENMOLCAS    OPEN  MOLCASO     P  E  NMO
    OPENMOLCAS     OP               E  N  MOL
    OPENMOLCA   SO           PENM   O  L  CAS    OPEN    MO    LCAS
    OPENMOLCA   SOP           ENM   O  L  CAS   OP  EN  MOLC  AS   O
    OPENMOLCA   SOPE           NM      O  LCA   S      OP  EN MO
    OPENMOLC                AS         O  PEN   M      OL  CA  SOPE
    OPENMO        LCASOPE  NMOL        C  ASO   P      ENMOLC     AS
    OPE     NMO      LCA  SO     P     E   NM   OL  CA SO  PE N   MO
          OPENMOLCA            SOPE   NMO        LCAS  O    P  ENMO
     OPENMOLCASOPENMOLCASOPENMOLCASOPENMOLCA
        OPENMOLCASOPENMOLCASOPENMOLCASOPE
            OPENMOLCASOPENMOLCASOPENM
               OPENMOLCASOPENMOLCA        version: 18.09
                   OPENMOLCASO
                       OPE                tag: 50-g6d6e5e5-dirty

 OpenMolcas is free software; you can redistribute it and/or modify it
 under the terms of the GNU Lesser General Public License version 2.1.
 OpenMolcas is distributed in the hope that it will be useful, but it
 is provided "as is" and without any express or implied warranties.
 For more details see the full text of the license in the file
 LICENSE or in <http://www.gnu.org/licenses/>.

                 Copyright (C) The OpenMolcas Authors
           For the author list and the recommended citation,
                   consult the file CONTRIBUTORS.md

           *************************************************
           * pymolcas version py2.04                       *
           *   build 3b3f1139d1f9af0cd96dc01c0ce9d5c0      *
           *   (after the EMIL interpreter by V. Veryazov) *
           *************************************************

configuration info
------------------
C Compiler ID: Intel
C flags: -std=gnu99 -qopenmp
Fortran Compiler ID: Intel
Fortran flags: -fpp -i8 -r8 -heap-arrays -qopenmp
Definitions: _MOLCAS_;_I8_;_LINUX_;_MKL_;_FDE_
Parallel: OFF (GA=OFF)


   -------------------------------------------------------------------------------------------------------------------------------
  |
  |           Project: NpO2_CH3SO2_CH3SO2-m1-triplet.rassi-SO-casscf-xmscaspt2.VTZP
  |    Submitted from: /home/vallet/John-methylsulfonyl/NpO2_CH3SO2_CH3SO2-m1/optg-freq-pbe0/SO-XMS
  |      Scratch area: /state/partition2/vallet/498906.phlam-s-sakura/NpO2_CH3SO2_CH3SO2-m1-triplet.rassi-SO-casscf-xmscaspt2.VTZP
  |   Save outputs to: /home/vallet/John-methylsulfonyl/NpO2_CH3SO2_CH3SO2-m1/optg-freq-pbe0/SO-XMS
  |            Molcas: /home/pcmt/OpenMolcas/OpenMolcas-20181005
  |
  | Scratch area is empty
  |
  |    MOLCAS_DRIVER = /home/pcmt/OpenMolcas/OpenMolcas-20181005/sbin/pymolcas
  |   MOLCAS_LICENSE = /home/pcmt/molcas/license
  |    MOLCAS_MOLDEN = ON
  |    MOLCAS_NPROCS = 1
  |    MOLCAS_SOURCE = /home/pcmt/OpenMolcas/OpenMolcas-20181005
  | MOLCAS_STRUCTURE = 0
  |
   -------------------------------------------------------------------------------------------------------------------------------

++ ---------   Input file   ---------

&GATEWAY
   COORD=$HomeDir/NpO2_CH3SO2_CH3SO2-m1-triplet.pbe0.optg-zaxis.xyz
   BASIS=ANO-RCC-VTZP
   Group=Nosym
   ANGM=0.0 0.0 0.0
   RICD

&SEWARD

>>> COPY $HomeDir/NpO2_CH3SO2_CH3SO2-m1-triplet.casscf.MB.RunFile RUNFIL1

>>> COPY $Project.RunFile RUNFIL2

>>> COPY $HomeDir/NpO2_CH3SO2_CH3SO2-m1-triplet.casscf.MB.RasOrb_triplets INPORB

&EXPBAS

>>> COPY $Project.ExpOrb $HomeDir/$Project.ExpOrb_triplets

>>> COPY $HomeDir/NpO2_CH3SO2_CH3SO2-m1-triplet.casscf.MB.RasOrb_singlets INPORB

&EXPBAS

>>> COPY $Project.ExpOrb $HomeDir/$Project.ExpOrb_singlets

>>> COPY $HomeDir/$Project.ExpOrb_triplets INPORB

&RASSCF
   Spin=3
   Symmetry=1
   Nactel=2 0 0
   Inactive=95
   Ras2=4
   CIRoots=6 6 1
   Lumorb

>>> COPY $Project.JobIph $Project.JobIph_triplets

>>> COPY $Project.RasOrb $Project.RasOrb_triplets

&CASPT2
    IPEA=0.0
    XMUL= ALL
    THRESHOLDS= 1.0D-09 1.0D-07
    MAXITER=150
    CONVERGENCE=1.0D-6
    IMAG=0.1

>>> COPY $Project.JobMix $Project.JobMix_triplets

>>> COPY $HomeDir/$Project.ExpOrb_singlets INPORB

&RASSCF
   Spin=1
   Symmetry=1
   Nactel=2 0 0
   Inactive=95
   Ras2=4
   CIRoots=10 10 1
   Lumorb

>>> COPY $Project.JobIph $Project.JobIph_singlets

&CASPT2
    IPEA=0.0
    XMUL= ALL
    THRESHOLDS= 1.0D-09 1.0D-07
    MAXITER=150
    CONVERGENCE=1.0D-6
    IMAG=0.1

>>> COPY $Project.JobMix $Project.JobMix_singlets

>>> COPY $Project.JobIph_triplets JOB001

>>> COPY $Project.JobIph_singlets JOB002

&RASSI
    EJob
    SPINorbit

>>> COPY $Project.JobMix_triplets JOB001

>>> COPY $Project.JobMix_singlets JOB002

&RASSI
    EJob
    SPINorbit

-- ----------------------------------

--- Start Module: gateway at Fri Nov 16 09:45:03 2018 ---
 
()()()()()()()()()()()()()()()()()()()()()()()()()()()()()()()()()()()()()()()()()()()()()()()()()()

                                              &GATEWAY

                                   only a single process is used
                       available to each process: 32 GB of memory, 8 threads
()()()()()()()()()()()()()()()()()()()()()()()()()()()()()()()()()()()()()()()()()()()()()()()()()()
 
 
++    Symmetry information:
      ---------------------
 
                    Character Table for C1 
 
                             E  
                    a        1  x, y, xy, Rz, z, xz, Ry, yz, Rx, I
--
 
 
++    Basis set information:
      ----------------------
 
 
      Basis set label: C.ANO-RCC...4S3P2D1F.
 
      Electronic valence basis set:
      ------------------
      Associated Effective Charge   6.000000 au
      Associated Actual Charge      6.000000 au
      Nuclear Model: Point charge
 
      Shell  nPrim  nBasis  Cartesian Spherical Contaminant
         s      14       4        X                  
         p       9       3        X                  
         d       4       2                 X         
         f       3       1                 X         
 
 
      Basis set label: S.ANO-RCC...5S4P2D1F.
 
      Electronic valence basis set:
      ------------------
      Associated Effective Charge  16.000000 au
      Associated Actual Charge     16.000000 au
      Nuclear Model: Point charge
 
      Shell  nPrim  nBasis  Cartesian Spherical Contaminant
         s      17       5        X                  
         p      12       4        X                  
         d       5       2                 X         
         f       4       1                 X         
 
 
      Basis set label: O.ANO-RCC...4S3P2D1F.
 
      Electronic valence basis set:
      ------------------
      Associated Effective Charge   8.000000 au
      Associated Actual Charge      8.000000 au
      Nuclear Model: Point charge
 
      Shell  nPrim  nBasis  Cartesian Spherical Contaminant
         s      14       4        X                  
         p       9       3        X                  
         d       4       2                 X         
         f       3       1                 X         
 
 
      Basis set label: NP.ANO-RCC...9S8P6D4F2G1H.
 
      Electronic valence basis set:
      ------------------
      Associated Effective Charge  93.000000 au
      Associated Actual Charge     93.000000 au
      Nuclear Model: Point charge
 
      Shell  nPrim  nBasis  Cartesian Spherical Contaminant
         s      26       9        X                  
         p      23       8        X                  
         d      17       6                 X         
         f      13       4                 X         
         g       5       2                 X         
         h       3       1                 X         
 
 
      Basis set label: O.ANO-RCC...4S3P2D1F.
 
      Electronic valence basis set:
      ------------------
      Associated Effective Charge   8.000000 au
      Associated Actual Charge      8.000000 au
      Nuclear Model: Point charge
 
      Shell  nPrim  nBasis  Cartesian Spherical Contaminant
         s      14       4        X                  
         p       9       3        X                  
         d       4       2                 X         
         f       3       1                 X         
 
 
      Basis set label: S.ANO-RCC...5S4P2D1F.
 
      Electronic valence basis set:
      ------------------
      Associated Effective Charge  16.000000 au
      Associated Actual Charge     16.000000 au
      Nuclear Model: Point charge
 
      Shell  nPrim  nBasis  Cartesian Spherical Contaminant
         s      17       5        X                  
         p      12       4        X                  
         d       5       2                 X         
         f       4       1                 X         
 
 
      Basis set label: C.ANO-RCC...4S3P2D1F.
 
      Electronic valence basis set:
      ------------------
      Associated Effective Charge   6.000000 au
      Associated Actual Charge      6.000000 au
      Nuclear Model: Point charge
 
      Shell  nPrim  nBasis  Cartesian Spherical Contaminant
         s      14       4        X                  
         p       9       3        X                  
         d       4       2                 X         
         f       3       1                 X         
 
 
      Basis set label: O.ANO-RCC...4S3P2D1F.
 
      Electronic valence basis set:
      ------------------
      Associated Effective Charge   8.000000 au
      Associated Actual Charge      8.000000 au
      Nuclear Model: Point charge
 
      Shell  nPrim  nBasis  Cartesian Spherical Contaminant
         s      14       4        X                  
         p       9       3        X                  
         d       4       2                 X         
         f       3       1                 X         
 
 
      Basis set label: H.ANO-RCC...3S2P1D.
 
      Electronic valence basis set:
      ------------------
      Associated Effective Charge   1.000000 au
      Associated Actual Charge      1.000000 au
      Nuclear Model: Point charge
 
      Shell  nPrim  nBasis  Cartesian Spherical Contaminant
         s       8       3        X                  
         p       4       2        X                  
         d       3       1                 X         
--
 
 
++    Molecular structure info:
      -------------------------
 
                    ************************************************ 
                    **** Cartesian Coordinates / Bohr, Angstrom **** 
                    ************************************************ 
 
     Center  Label                x              y              z                     x              y              z
        1      C1               0.015685       6.374443      -3.917629              0.008300       3.373210      -2.073120
        2      S2               0.006709       5.872966      -0.523227              0.003550       3.107840      -0.276880
        3      O3               2.327727       4.173933      -0.179335              1.231780       2.208750      -0.094900
        4      O4              -2.320716       4.181246      -0.190314             -1.228070       2.212620      -0.100710
        5      NP5              0.000000       0.000000       0.000000              0.000000       0.000000       0.000000
        6      O6              -0.000019       0.000000      -3.363335             -0.000010       0.000000      -1.779800
        7      O7              -2.325346      -4.175709       0.179089             -1.230520      -2.209690       0.094770
        8      S8              -0.003099      -5.872985       0.523095             -0.001640      -3.107850       0.276810
        9      C9              -0.011924      -6.374556       3.917497             -0.006310      -3.373270       2.073050
       10      O10              0.000000       0.000000       3.363353              0.000000       0.000000       1.779810
       11      O11              2.323097      -4.179488       0.190409              1.229330      -2.211690       0.100760
       12      H12              1.680193      -7.439757       4.416441              0.889120      -3.936950       2.337080
       13      H13             -0.009675      -4.505731       4.786846             -0.005120      -2.384330       2.533090
       14      H14             -1.710882      -7.432312       4.408901             -0.905360      -3.933010       2.333090
       15      H15              1.715399       7.430913      -4.409203              0.907750       3.932270      -2.333250
       16      H16              0.011981       4.505580      -4.786922              0.006340       2.384250      -2.533130
       17      H17             -1.675658       7.440891      -4.416460             -0.886720       3.937550      -2.337090
 
                    ************************************************* 
                    **** InterNuclear Distances / Bohr, Angstrom **** 
                    ************************************************* 
 
     Atom centers         Bohr        Angstrom
   12 H12       9 C9      2.060773        1.090514
   14 H14       9 C9    
   15 H15       1 C1    
   17 H17       1 C1    
   13 H13       9 C9      2.061136        1.090706
   16 H16       1 C1    
    4 O4        2 S2      2.896490        1.532757
   11 O11       8 S8      2.896515        1.532770
    8 S8        7 O7      2.896881        1.532963
    3 O3        2 S2      2.896913        1.532980
    6 O6        5 NP5     3.363335        1.779800
   10 O10       5 NP5     3.363353        1.779810
   14 H14      12 H12     3.391079        1.794482
   17 H17      15 H15   
   13 H13      12 H12     3.406078        1.802419
   17 H17      16 H16   
   14 H14      13 H13     3.406145        1.802454
   16 H16      15 H15   
    2 S2        1 C1      3.431257        1.815743
    9 C9        8 S8    
   16 H16       2 S2      4.477596        2.369442
   13 H13       8 S8      4.477611        2.369450
   17 H17       2 S2      4.521726        2.392794
   12 H12       8 S8      4.521769        2.392817
   14 H14       8 S8      4.521892        2.392882
   15 H15       2 S2      4.521906        2.392889
    4 O4        3 O3      4.648458        2.459858
   11 O11       7 O7    
   16 H16       6 O6      4.725145        2.500439
   13 H13      10 O10     4.725255        2.500497
    5 NP5       3 O3      4.782487        2.530783
    7 O7        5 NP5     4.782871        2.530986
   11 O11       5 NP5     4.785515        2.532386
    5 NP5       4 O4      4.785892        2.532585
    4 O4        1 C1      4.915461        2.601150
   11 O11       9 C9    
    3 O3        1 C1      4.915541        2.601192
    9 C9        7 O7    
   13 H13      11 O11     5.164830        2.733110
   16 H16       4 O4    
   16 H16       3 O3      5.167449        2.734496
   13 H13       7 O7      5.167462        2.734503
   14 H14       7 O7      5.373484        2.843526
   15 H15       3 O3      5.373514        2.843541
   17 H17       4 O4      5.376030        2.844872
   12 H12      11 O11     5.376061        2.844889
--
 
 
            Nuclear Potential Energy           2507.36630943 au
 
--- Stop Module: gateway at Fri Nov 16 09:47:00 2018 /rc=_RC_ALL_IS_WELL_ ---
*** files: NpO2_CH3SO2_CH3SO2-m1-triplet.rassi-SO-casscf-xmscaspt2.VTZP.RICDLib xmldump
    saved to directory /home/vallet/John-methylsulfonyl/NpO2_CH3SO2_CH3SO2-m1/optg-freq-pbe0/SO-XMS
--- Module gateway spent 1 minute 57 seconds ---

--- Start Module: seward at Fri Nov 16 09:47:00 2018 ---
 
()()()()()()()()()()()()()()()()()()()()()()()()()()()()()()()()()()()()()()()()()()()()()()()()()()

                                              &SEWARD

                                   only a single process is used
                       available to each process: 32 GB of memory, 8 threads
()()()()()()()()()()()()()()()()()()()()()()()()()()()()()()()()()()()()()()()()()()()()()()()()()()
 
               SEWARD will generate:
                  Multipole Moment integrals up to order  2
                  Kinetic Energy integrals
                  Nuclear Attraction integrals (point charge)
                  One-Electron Hamiltonian integrals
                  Velocity integrals
                  Relativistic Douglas-Kroll-Hess integrals:
                    - Parametrization         : EXP
                    - DKH order of Hamiltonian: 2
                    - DKH order of Properties : 0
                         - multipole moment operators
                         - electric potential operators
                         - contact operators
                  Orbital angular momentum around ( 0.0000  0.0000  0.0000 )
                  Atomic mean-field integrals
                  RI decomposed two-electron repulsion integrals stored Cholesky style
                   - acCD auxiliary basis
                   - CD Threshold:   0.10E-03
 
                   Integrals are discarded if absolute value <: 0.10E-13
                   Integral cutoff threshold is set to       <: 0.10E-15
 
            Nuclear Potential Energy           2507.36630943 au
 
 
      Basis set specifications :
      Symmetry species         a  
      Basis functions          512
 
 
 Post_2Center_RI
 Detected lin. dependences in the auxiliary basis.
 # of AuxBas before l. d. removal:   4604
 # of AuxBas after  l. d. removal:   4591
 
 Sorry, Molden does not know how to handle
 functions with angular momentum larger than g
--- Stop Module: seward at Fri Nov 16 09:53:58 2018 /rc=_RC_ALL_IS_WELL_ ---
*** files: NpO2_CH3SO2_CH3SO2-m1-triplet.rassi-SO-casscf-xmscaspt2.VTZP.GssOrb NpO2_CH3SO2_CH3SO2-m1-triplet.rassi-SO-casscf-xmscaspt2.VTZP.guessorb.h5 xmldump
    saved to directory /home/vallet/John-methylsulfonyl/NpO2_CH3SO2_CH3SO2-m1/optg-freq-pbe0/SO-XMS
--- Module seward spent 6 minutes 57 seconds ---

>>> COPY /home/vallet/John-methylsulfonyl/NpO2_CH3SO2_CH3SO2-m1/optg-freq-pbe0/SO-XMS/NpO2_CH3SO2_CH3SO2-m1-triplet.casscf.MB.RunFile RUNFIL1

>>> COPY NpO2_CH3SO2_CH3SO2-m1-triplet.rassi-SO-casscf-xmscaspt2.VTZP.RunFile RUNFIL2

>>> COPY /home/vallet/John-methylsulfonyl/NpO2_CH3SO2_CH3SO2-m1/optg-freq-pbe0/SO-XMS/NpO2_CH3SO2_CH3SO2-m1-triplet.casscf.MB.RasOrb_triplets INPORB

--- Start Module: expbas at Fri Nov 16 09:53:59 2018 ---
 
()()()()()()()()()()()()()()()()()()()()()()()()()()()()()()()()()()()()()()()()()()()()()()()()()()

                                              &EXPBAS

                                   only a single process is used
                       available to each process: 32 GB of memory, 8 threads
()()()()()()()()()()()()()()()()()()()()()()()()()()()()()()()()()()()()()()()()()()()()()()()()()()
 

 Header on input orbitals file:
* RASSCF average (pseudo-natural) orbitals

 Information from input runfile
           Number of symmetries    1
      Number of basis functions  123

 Information from expanded basis set runfile
           Number of symmetries    1
      Number of basis functions  512
 New orbitals have been built in file EXPORB
--- Stop Module: expbas at Fri Nov 16 09:54:00 2018 /rc=_RC_ALL_IS_WELL_ ---
*** files: NpO2_CH3SO2_CH3SO2-m1-triplet.rassi-SO-casscf-xmscaspt2.VTZP.ExpOrb xmldump
    saved to directory /home/vallet/John-methylsulfonyl/NpO2_CH3SO2_CH3SO2-m1/optg-freq-pbe0/SO-XMS

>>> COPY NpO2_CH3SO2_CH3SO2-m1-triplet.rassi-SO-casscf-xmscaspt2.VTZP.ExpOrb /home/vallet/John-methylsulfonyl/NpO2_CH3SO2_CH3SO2-m1/optg-freq-pbe0/SO-XMS/NpO2_CH3SO2_CH3SO2-m1-triplet.rassi-SO-casscf-xmscaspt2.VTZP.ExpOrb_triplets

>>> COPY /home/vallet/John-methylsulfonyl/NpO2_CH3SO2_CH3SO2-m1/optg-freq-pbe0/SO-XMS/NpO2_CH3SO2_CH3SO2-m1-triplet.casscf.MB.RasOrb_singlets INPORB

--- Start Module: expbas at Fri Nov 16 09:54:00 2018 ---
 
()()()()()()()()()()()()()()()()()()()()()()()()()()()()()()()()()()()()()()()()()()()()()()()()()()

                                              &EXPBAS

                                   only a single process is used
                       available to each process: 32 GB of memory, 8 threads
()()()()()()()()()()()()()()()()()()()()()()()()()()()()()()()()()()()()()()()()()()()()()()()()()()
 

 Header on input orbitals file:
* RASSCF average (pseudo-natural) orbitals

 Information from input runfile
           Number of symmetries    1
      Number of basis functions  123

 Information from expanded basis set runfile
           Number of symmetries    1
      Number of basis functions  512
 New orbitals have been built in file EXPORB
--- Stop Module: expbas at Fri Nov 16 09:54:00 2018 /rc=_RC_ALL_IS_WELL_ ---
*** files: NpO2_CH3SO2_CH3SO2-m1-triplet.rassi-SO-casscf-xmscaspt2.VTZP.ExpOrb xmldump
    saved to directory /home/vallet/John-methylsulfonyl/NpO2_CH3SO2_CH3SO2-m1/optg-freq-pbe0/SO-XMS

>>> COPY NpO2_CH3SO2_CH3SO2-m1-triplet.rassi-SO-casscf-xmscaspt2.VTZP.ExpOrb /home/vallet/John-methylsulfonyl/NpO2_CH3SO2_CH3SO2-m1/optg-freq-pbe0/SO-XMS/NpO2_CH3SO2_CH3SO2-m1-triplet.rassi-SO-casscf-xmscaspt2.VTZP.ExpOrb_singlets

>>> COPY /home/vallet/John-methylsulfonyl/NpO2_CH3SO2_CH3SO2-m1/optg-freq-pbe0/SO-XMS/NpO2_CH3SO2_CH3SO2-m1-triplet.rassi-SO-casscf-xmscaspt2.VTZP.ExpOrb_triplets INPORB

--- Start Module: rasscf at Fri Nov 16 09:54:00 2018 ---
 
()()()()()()()()()()()()()()()()()()()()()()()()()()()()()()()()()()()()()()()()()()()()()()()()()()

                                              &RASSCF

                                   only a single process is used
                       available to each process: 32 GB of memory, 8 threads
()()()()()()()()()()()()()()()()()()()()()()()()()()()()()()()()()()()()()()()()()()()()()()()()()()
 
 
      Header of the ONEINT file:
      --------------------------
      
      Integrals generated by seward 4.2.0  , Fri Nov 16 09:47:01 2018
 
 
      OrdInt status: non-squared
 
 
      Cartesian coordinates in Angstrom:
      -----------------------------------------------------
      No.  Label        X            Y            Z        
      -----------------------------------------------------
       1   C1         0.00830000   3.37321000  -2.07312000
       2   S2         0.00355000   3.10784000  -0.27688000
       3   O3         1.23178000   2.20875000  -0.09490000
       4   O4        -1.22807000   2.21262000  -0.10071000
       5   NP5        0.00000000   0.00000000   0.00000000
       6   O6        -0.00001000   0.00000000  -1.77980000
       7   O7        -1.23052000  -2.20969000   0.09477000
       8   S8        -0.00164000  -3.10785000   0.27681000
       9   C9        -0.00631000  -3.37327000   2.07305000
      10   O10        0.00000000   0.00000000   1.77981000
      11   O11        1.22933000  -2.21169000   0.10076000
      12   H12        0.88912000  -3.93695000   2.33708000
      13   H13       -0.00512000  -2.38433000   2.53309000
      14   H14       -0.90536000  -3.93301000   2.33309000
      15   H15        0.90775000   3.93227000  -2.33325000
      16   H16        0.00634000   2.38425000  -2.53313000
      17   H17       -0.88672000   3.93755000  -2.33709000
      -----------------------------------------------------
      Nuclear repulsion energy = 2507.36630943
 
++    Wave function specifications:
      -----------------------------
 
      Number of closed shell electrons         190
      Number of electrons in active shells       2
      Max number of holes in RAS1 space          0
      Max nr of electrons in RAS3 space          0
      Number of inactive orbitals               95
      Number of active orbitals                  4
      Number of secondary orbitals             413
      Spin quantum number                      1.0
      State symmetry                             1
--
 
++    Orbital specifications:
      -----------------------
 
      Symmetry species                           1
                                                 a
      Frozen orbitals                            0
      Inactive orbitals                         95
      Active orbitals                            4
      RAS1 orbitals                              0
      RAS2 orbitals                              4
      RAS3 orbitals                              0
      Secondary orbitals                       413
      Deleted orbitals                           0
      Number of basis functions                512
--
 
++    CI expansion specifications:
      ----------------------------
 
      Number of CSFs                             6
      Number of determinants                     6
      Number of root(s) required                 6
      Root chosen for geometry opt.              6
      CI roots used                              1     2     3     4     5     6
      weights                                0.167 0.167 0.167 0.167 0.167 0.167
      highest root included in the CI            6
      max. size of the explicit Hamiltonian      6
--
 
++    Optimization specifications:
      ----------------------------
 
      RASSCF algorithm: LK RI/DF
      Maximum number of macro iterations       200
      Maximum number of SX iterations          100
      Threshold for RASSCF energy            0.100E-07
      Threshold for max MO rotation          0.100E+00
      Threshold for max BLB element          0.100E-03
      Level shift parameter                  0.500E+00
      Make Quasi-Newton update
--
 
      The MO-coefficients are taken from the file:
      INPORB                                                                                                                          
      Title:Basis set expanded orbital file EXPORB                                         
 
      Total molecular charge   -1.00
 
      ************************************************************************************************************************
      *                                                                                                                      *
      *                                            Wave function control section                                             *
      *                                                                                                                      *
      ************************************************************************************************************************
 
 
                                         RASSCF iterations: Energy and convergence statistics
                                         ----------------------------------------------------
 
      Iter CI   SX   CI       RASSCF       Energy    max ROT     max BLB   max BLB  Level Ln srch  Step   QN   Walltime
          iter iter root      energy       change     param      element    value   shift minimum  type update hh:mm:ss
 Nr of preliminary CI iterations:   1
      Total energies have been shifted. Add               -30000.00 au
        1   1   18    0   -62.11389438    0.00E+00  -0.43E-01   88 250 1 -0.25E+00*  0.46   0.00    SX    NO    0:07:39
        2   1   21    0   -62.99353047   -0.88E+00*  0.35E-01   88 250 1 -0.10E+00*  0.49   0.00    SX    NO    0:04:21
        3   1   22    0   -63.21291785   -0.22E+00* -0.26E-01   81 115 1 -0.74E-01*  0.46   0.00    SX    NO    0:04:16
        4   1   21    0   -63.28272093   -0.70E-01* -0.18E-01   81 115 1 -0.49E-01*  0.47   0.00    SX    NO    0:03:40
        5   1   21    0   -63.30733177   -0.25E-01* -0.21E-01   81 115 1 -0.32E-01*  0.46   2.45    LS   YES    0:04:26
        6   1   21    0   -63.32022994   -0.13E-01*  0.11E-01   90 114 1 -0.16E-01*  0.45   1.21    QN   YES    0:05:19
        7   1   20    0   -63.32331337   -0.31E-02*  0.42E-02   66 226 1  0.93E-02*  0.47   0.92    QN   YES    0:03:27
        8   1   18    0   -63.32427515   -0.96E-03*  0.22E-02   90 114 1 -0.31E-02*  0.47   1.53    LS   YES    0:03:45
        9   1   18    0   -63.32440513   -0.13E-03*  0.23E-02   88 106 1  0.30E-02*  0.46   1.02    QN   YES    0:03:52
       10   1   16    0   -63.32453494   -0.13E-03*  0.97E-03   94 113 1  0.87E-03*  0.46   1.42    LS   YES    0:03:40
       11   1   15    0   -63.32454758   -0.13E-04* -0.21E-02   88 250 1 -0.69E-03*  0.47   1.01    QN   YES    0:03:54
       12   1   14    0   -63.32456587   -0.18E-04* -0.24E-02   97 101 1 -0.50E-03*  0.47   2.13    LS   YES    0:06:52
       13   1   14    0   -63.32457300   -0.71E-05* -0.21E-02   97 101 1 -0.45E-03*  0.47   1.01    QN   YES    0:05:52
       14   1   13    0   -63.32457851   -0.55E-05* -0.63E-02   97 101 1 -0.41E-03*  0.47   2.47    QN   YES    0:04:31
       15   1   13    0   -63.32458749   -0.90E-05*  0.54E-02   81 115 1 -0.36E-03*  0.47   1.52    QN   YES    0:03:32
       16   1   13    0   -63.32459228   -0.48E-05*  0.54E-02   81 115 1 -0.36E-03*  0.47   1.85    QN   YES    0:04:28
       17   1   12    0   -63.32459581   -0.35E-05* -0.21E-02   94 104 1 -0.18E-03*  0.47   1.47    QN   YES    0:04:18
       18   1   11    0   -63.32459704   -0.12E-05* -0.36E-03   94 104 1 -0.14E-03*  0.47   1.43    QN   YES    0:04:19
       19   1   10    0   -63.32459738   -0.34E-06*  0.15E-03   94 104 1 -0.74E-04   0.47   1.36    QN   YES    0:03:25
       20   1    9    0   -63.32459747   -0.84E-07* -0.10E-03   94 104 1 -0.29E-04   0.47   1.49    QN   YES    0:03:24
       21   1    8    0   -63.32459749   -0.25E-07* -0.15E-03   78 104 1 -0.12E-04   0.47   2.50    LS   YES    0:03:43
       22   1   10    0   -63.32459748    0.14E-07* -0.76E-04   76 104 1 -0.31E-04   0.47   0.29    LS   YES    0:03:54
       23   1    9    0   -63.32459749   -0.15E-07*  0.67E-04   76 104 1 -0.16E-04   0.47   1.33    QN   YES    0:04:13
       24   1    8    0   -63.32459750   -0.77E-08   0.10E-03   99 103 1  0.93E-05   0.47   2.50    QN   YES    0:04:11
      Convergence after 24 iterations
       25   1    8    0   -63.32459751   -0.53E-08   0.10E-03   99 103 1  0.80E-05   0.47   2.50    QN   YES    0:03:34
 
      ************************************************************************************************************************
                                                      Wave function printout:
                       occupation of active orbitals, and spin coupling of open shells (u,d: Spin up or down)
      ************************************************************************************************************************
 
      Note: transformation to natural orbitals
      has been made, which may change the order of the CSFs.
 
      printout of CI-coefficients larger than  0.05 for root  1
      energy=  -30063.353706
      conf/sym  1111     Coeff  Weight
             1  uu00   0.66057 0.43635
             3  u00u  -0.07198 0.00518
             4  0uu0  -0.20658 0.04267
             6  00uu   0.71637 0.51318
 
      printout of CI-coefficients larger than  0.05 for root  2
      energy=  -30063.353566
      conf/sym  1111     Coeff  Weight
             1  uu00   0.19830 0.03932
             3  u00u   0.71471 0.51081
             4  0uu0   0.66562 0.44305
             6  00uu   0.08173 0.00668
 
      printout of CI-coefficients larger than  0.05 for root  3
      energy=  -30063.341006
      conf/sym  1111     Coeff  Weight
             1  uu00   0.07481 0.00560
             2  u0u0   0.83834 0.70282
             3  u00u  -0.16629 0.02765
             4  0uu0   0.14686 0.02157
             5  0u0u   0.49230 0.24236
 
      printout of CI-coefficients larger than  0.05 for root  4
      energy=  -30063.321409
      conf/sym  1111     Coeff  Weight
             1  uu00   0.63641 0.40502
             3  u00u   0.21049 0.04430
             4  0uu0  -0.33462 0.11197
             6  00uu  -0.66131 0.43733
 
      printout of CI-coefficients larger than  0.05 for root  5
      energy=  -30063.315538
      conf/sym  1111     Coeff  Weight
             1  uu00  -0.33682 0.11344
             2  u0u0   0.17368 0.03016
             3  u00u   0.64150 0.41152
             4  0uu0  -0.61520 0.37848
             5  0u0u   0.15686 0.02460
             6  00uu   0.20442 0.04179
 
      printout of CI-coefficients larger than  0.05 for root  6
      energy=  -30063.262360
      conf/sym  1111     Coeff  Weight
             2  u0u0  -0.51389 0.26408
             5  0u0u   0.85548 0.73185
 
      Natural orbitals and occupation numbers for root  1
      sym 1:   0.395928   0.395928   0.604072   0.604072
 
      Natural orbitals and occupation numbers for root  2
      sym 1:   0.589175   0.410825   0.410825   0.589175
 
      Natural orbitals and occupation numbers for root  3
      sym 1:   0.742322   0.257678   0.742322   0.257678
 
      Natural orbitals and occupation numbers for root  4
      sym 1:   0.410828   0.589172   0.589172   0.410828
 
      Natural orbitals and occupation numbers for root  5
      sym 1:   0.595741   0.595741   0.404259   0.404259
 
      Natural orbitals and occupation numbers for root  6
      sym 1:   0.260770   0.739230   0.260770   0.739230
 
      ************************************************************************************************************************
      *                                                                                                                      *
      *                                                    Final results                                                     *
      *                                                                                                                      *
      ************************************************************************************************************************
 
 
++    Wave function specifications:
      -----------------------------
 
      Number of closed shell electrons         190
      Number of electrons in active shells       2
      Max number of holes in RAS1 space          0
      Max nr of electrons in RAS3 space          0
      Number of inactive orbitals               95
      Number of active orbitals                  4
      Number of secondary orbitals             413
      Spin quantum number                      1.0
      State symmetry                             1
--
 
++    Orbital specifications:
      -----------------------
 
      Symmetry species                           1
                                                 a
      Frozen orbitals                            0
      Inactive orbitals                         95
      Active orbitals                            4
      RAS1 orbitals                              0
      RAS2 orbitals                              4
      RAS3 orbitals                              0
      Secondary orbitals                       413
      Deleted orbitals                           0
      Number of basis functions                512
--
 
++    CI expansion specifications:
      ----------------------------
 
      Number of CSFs                             6
      Number of determinants                     6
      Number of root(s) required                 6
      CI roots used                              1     2     3     4     5     6
      weights                                0.167 0.167 0.167 0.167 0.167 0.167
      highest root included in the CI            6
      Root passed to geometry opt.               6
--
 
++    Final optimization conditions:
      ------------------------------
 
      Average CI energy                          -30063.32459751
      RASSCF energy for state  6                 -30063.26235993
      Super-CI energy                                -0.00000000
      RASSCF energy change                           -0.00000001
      Max change in MO coefficients               0.128E-03
      Max non-diagonal density matrix element     0.103E-03
      Maximum BLB matrix element                  0.800E-05
      (orbital pair  99, 103 in symmetry   1)
      Norm of electronic gradient            0.110E+00
--
 
 
      Final state energy(ies):
      ------------------------
 
::    RASSCF root number  1 Total energy: -30063.35370641
::    RASSCF root number  2 Total energy: -30063.35356554
::    RASSCF root number  3 Total energy: -30063.34100643
::    RASSCF root number  4 Total energy: -30063.32140912
::    RASSCF root number  5 Total energy: -30063.31553762
::    RASSCF root number  6 Total energy: -30063.26235993
 
++    Molecular orbitals:
      -------------------
 
      Pseudonatural active orbitals and approximate occupation numbers
 
 
      MOLECULAR ORBITALS FOR SYMMETRY SPECIES 1: a  
 
      INDEX  ENERGY  OCCUPATION COEFFICIENTS ...
          1-4373.1661    2.0000                                                                                                           
               125 NP5    1s     ( 1.0000)
          2 -828.8513    2.0000                                                                                                           
               126 NP5    2s     ( 1.0000)
          3 -693.1978    2.0000                                                                                                           
               150 NP5    2pz    ( 1.0000)
          4 -693.1959    2.0000                                                                                                           
               142 NP5    2py    ( 1.0000)
          5 -693.1956    2.0000                                                                                                           
               134 NP5    2px    ( 1.0000)
          6 -213.2814    2.0000                                                                                                           
               127 NP5    3s     ( 1.0000)
          7 -175.0082    2.0000                                                                                                           
               143 NP5    3py    ( 0.9995)
          8 -175.0073    2.0000                                                                                                           
               135 NP5    3px    ( 1.0000)
          9 -175.0071    2.0000                                                                                                           
               151 NP5    3pz    ( 0.9995)
         10 -139.3661    2.0000                                                                                                           
               164 NP5    3d1-   ( 0.9989)
         11 -139.3657    2.0000                                                                                                           
               158 NP5    3d2-   ( 0.1389) 176 NP5    3d1+   ( 0.9903)
         12 -139.3657    2.0000                                                                                                           
               170 NP5    3d0    ( 0.1366) 182 NP5    3d2+   ( 0.9896)
         13 -139.3655    2.0000                                                                                                           
               158 NP5    3d2-   ( 0.9903) 176 NP5    3d1+   (-0.1389)
         14 -139.3651    2.0000                                                                                                           
               170 NP5    3d0    ( 0.9906) 182 NP5    3d2+   (-0.1364)
         15  -92.2547    2.0000                                                                                                           
               305 S8     1s     ( 1.0000)
         16  -92.2547    2.0000                                                                                                           
                31 S2     1s     ( 1.0000)
         17  -56.4191    2.0000                                                                                                           
               128 NP5    4s     ( 1.0000)
         18  -43.6495    2.0000                                                                                                           
               144 NP5    4py    ( 0.9995)
         19  -43.6481    2.0000                                                                                                           
               136 NP5    4px    ( 1.0000)
         20  -43.6473    2.0000                                                                                                           
               152 NP5    4pz    ( 0.9995)
         21  -29.9940    2.0000                                                                                                           
               171 NP5    4d0    ( 0.9119) 183 NP5    4d2+   ( 0.4021)
         22  -29.9938    2.0000                                                                                                           
               165 NP5    4d1-   ( 0.9950)
         23  -29.9933    2.0000                                                                                                           
               159 NP5    4d2-   ( 0.3960) 177 NP5    4d1+   ( 0.9182)
         24  -29.9931    2.0000                                                                                                           
               159 NP5    4d2-   ( 0.9182) 177 NP5    4d1+   (-0.3960)
         25  -29.9925    2.0000                                                                                                           
               171 NP5    4d0    (-0.4071) 183 NP5    4d2+   ( 0.9116)
         26  -20.4087    2.0000                                                                                                           
                65 O3     1s     (-0.7775)  95 O4     1s     ( 0.3959) 275 O7     1s     ( 0.4320) 399 O11    1s     (-0.2258)
      
         27  -20.4087    2.0000                                                                                                           
                65 O3     1s     (-0.4341)  95 O4     1s     ( 0.2217) 275 O7     1s     (-0.7725) 399 O11    1s     ( 0.4056)
      
         28  -20.4086    2.0000                                                                                                           
                65 O3     1s     (-0.2576)  95 O4     1s     (-0.5068) 275 O7     1s     ( 0.3815) 399 O11    1s     ( 0.7281)
      
         29  -20.4086    2.0000                                                                                                           
                65 O3     1s     ( 0.3736)  95 O4     1s     ( 0.7322) 275 O7     1s     ( 0.2645) 399 O11    1s     ( 0.5033)
      
         30  -20.3820    2.0000                                                                                                           
               245 O6     1s     ( 0.8296) 369 O10    1s     ( 0.5579)
         31  -20.3820    2.0000                                                                                                           
               245 O6     1s     (-0.5578) 369 O10    1s     ( 0.8296)
         32  -15.8751    2.0000                                                                                                           
               200 NP5    4f0    ( 0.9958)
         33  -15.8722    2.0000                                                                                                           
               192 NP5    4f2-   ( 0.9994)
         34  -15.8718    2.0000                                                                                                           
               208 NP5    4f2+   ( 0.9943)
         35  -15.8707    2.0000                                                                                                           
               212 NP5    4f3+   ( 0.9977)
         36  -15.8706    2.0000                                                                                                           
               188 NP5    4f3-   ( 0.9978)
         37  -15.8619    2.0000                                                                                                           
               196 NP5    4f1-   ( 0.9993)
         38  -15.8615    2.0000                                                                                                           
               204 NP5    4f1+   ( 0.9983)
         39  -13.1315    2.0000                                                                                                           
               129 NP5    5s     ( 1.0004)
         40  -11.1278    2.0000                                                                                                           
               339 C9     1s     ( 1.0009)
         41  -11.1278    2.0000                                                                                                           
                 1 C1     1s     ( 1.0009)
         42   -9.0446    2.0000                                                                                                           
               153 NP5    5pz    ( 0.9995)
         43   -9.0222    2.0000                                                                                                           
               145 NP5    5py    ( 0.9999)
         44   -9.0199    2.0000                                                                                                           
               137 NP5    5px    ( 0.9999)
         45   -8.9955    2.0000                                                                                                           
                32 S2     2s     ( 0.1112) 306 S8     2s     ( 0.9929)
         46   -8.9955    2.0000                                                                                                           
                32 S2     2s     ( 0.9929) 306 S8     2s     (-0.1112)
         47   -6.6280    2.0000                                                                                                           
                36 S2     2px    ( 0.2372) 310 S8     2px    ( 0.9720)
         48   -6.6280    2.0000                                                                                                           
                36 S2     2px    (-0.9720) 310 S8     2px    ( 0.2372)
         49   -6.6278    2.0000                                                                                                           
               314 S8     2py    ( 0.5188) 318 S8     2pz    (-0.8544)
         50   -6.6278    2.0000                                                                                                           
                40 S2     2py    (-0.5188)  44 S2     2pz    ( 0.8544)
         51   -6.6259    2.0000                                                                                                           
               314 S8     2py    ( 0.8517) 318 S8     2pz    ( 0.5171)
         52   -6.6259    2.0000                                                                                                           
                40 S2     2py    (-0.8517)  44 S2     2pz    (-0.5171)
         53   -4.3423    2.0000                                                                                                           
               172 NP5    5d0    ( 0.9974)
         54   -4.3337    2.0000                                                                                                           
               166 NP5    5d1-   ( 0.9996)
         55   -4.3335    2.0000                                                                                                           
               178 NP5    5d1+   ( 0.9996)
         56   -4.3210    2.0000                                                                                                           
               184 NP5    5d2+   ( 0.9992)
         57   -4.3197    2.0000                                                                                                           
               160 NP5    5d2-   ( 0.9998)
         58   -2.1179    2.0000                                                                                                           
               130 NP5    6s     ( 0.9665)
         59   -1.3209    2.0000                                                                                                           
               154 NP5    6pz    ( 0.5533) 246 O6     2s     (-0.4216) 255 O6     2pz    (-0.1238) 370 O10    2s     ( 0.4216)
               379 O10    2pz    (-0.1238)
         60   -1.2694    2.0000                                                                                                           
                33 S2     3s     (-0.2418)  66 O3     2s     (-0.3440)  96 O4     2s     (-0.3440) 146 NP5    6py    (-0.1428)
               276 O7     2s     ( 0.3440) 307 S8     3s     ( 0.2419) 400 O11    2s     ( 0.3440)
         61   -1.2629    2.0000                                                                                                           
                33 S2     3s     ( 0.2581)  66 O3     2s     ( 0.3453)  96 O4     2s     ( 0.3455) 276 O7     2s     ( 0.3453)
               307 S8     3s     ( 0.2581) 400 O11    2s     ( 0.3454)
         62   -1.1585    2.0000                                                                                                           
                37 S2     3px    ( 0.1446)  66 O3     2s     ( 0.4131)  96 O4     2s     (-0.4131) 138 NP5    6px    ( 0.1340)
               276 O7     2s     (-0.4132) 311 S8     3px    ( 0.1446) 400 O11    2s     ( 0.4131)
         63   -1.1551    2.0000                                                                                                           
                37 S2     3px    (-0.1443)  66 O3     2s     (-0.4247)  96 O4     2s     ( 0.4245) 276 O7     2s     (-0.4246)
               311 S8     3px    ( 0.1442) 400 O11    2s     ( 0.4244)
         64   -1.0790    2.0000                                                                                                           
               130 NP5    6s     (-0.2497) 173 NP5    6d0    ( 0.1332) 246 O6     2s     ( 0.6454) 370 O10    2s     ( 0.6454)
      
         65   -0.9913    2.0000                                                                                                           
                33 S2     3s     (-0.1215) 146 NP5    6py    ( 0.9197) 307 S8     3s     ( 0.1215)
         66   -0.9880    2.0000                                                                                                           
               138 NP5    6px    ( 0.9562)
         67   -0.8836    2.0000                                                                                                           
                 2 C1     2s     ( 0.4295)  33 S2     3s     ( 0.2157)  45 S2     3pz    (-0.1329)  66 O3     2s     (-0.1516)
                96 O4     2s     (-0.1516) 276 O7     2s     (-0.1515) 307 S8     3s     ( 0.2155) 319 S8     3pz    ( 0.1328)
               340 C9     2s     ( 0.4292) 400 O11    2s     (-0.1515)
         68   -0.8800    2.0000                                                                                                           
                 2 C1     2s     (-0.4237)  33 S2     3s     (-0.1902)  45 S2     3pz    ( 0.1350)  66 O3     2s     ( 0.1556)
                96 O4     2s     ( 0.1555) 146 NP5    6py    (-0.1828) 276 O7     2s     (-0.1557) 307 S8     3s     ( 0.1903)
               319 S8     3pz    ( 0.1351) 340 C9     2s     ( 0.4239) 400 O11    2s     (-0.1556)
         69   -0.7744    2.0000                                                                                                           
               154 NP5    6pz    (-0.7056) 201 NP5    5f0    ( 0.1153) 246 O6     2s     (-0.5658) 255 O6     2pz    ( 0.1726)
               370 O10    2s     ( 0.5658) 379 O10    2pz    ( 0.1726)
         70   -0.6938    2.0000                                                                                                           
                 2 C1     2s     ( 0.2255)  11 C1     2pz    (-0.1343)  33 S2     3s     (-0.4631)  66 O3     2s     ( 0.2697)
                69 O3     2px    ( 0.1074)  72 O3     2py    (-0.1163)  96 O4     2s     ( 0.2698)  99 O4     2px    (-0.1078)
               102 O4     2py    (-0.1159) 276 O7     2s     ( 0.2697) 279 O7     2px    (-0.1075) 282 O7     2py    ( 0.1163)
               307 S8     3s     (-0.4632) 340 C9     2s     ( 0.2255) 349 C9     2pz    ( 0.1343) 400 O11    2s     ( 0.2698)
               403 O11    2px    ( 0.1077) 406 O11    2py    ( 0.1160)
         71   -0.6884    2.0000                                                                                                           
                 2 C1     2s     (-0.2190)  11 C1     2pz    ( 0.1353)  33 S2     3s     ( 0.4600)  66 O3     2s     (-0.2844)
                69 O3     2px    (-0.1180)  72 O3     2py    ( 0.1010)  96 O4     2s     (-0.2845)  99 O4     2px    ( 0.1183)
               102 O4     2py    ( 0.1007) 146 NP5    6py    ( 0.1316) 276 O7     2s     ( 0.2844) 279 O7     2px    (-0.1180)
               282 O7     2py    ( 0.1009) 307 S8     3s     (-0.4599) 340 C9     2s     ( 0.2190) 349 C9     2pz    ( 0.1353)
               400 O11    2s     ( 0.2845) 403 O11    2px    ( 0.1182) 406 O11    2py    ( 0.1008)
         72   -0.5147    2.0000                                                                                                           
                 8 C1     2py    ( 0.2314)  41 S2     3py    ( 0.2064)  45 S2     3pz    ( 0.1619)  69 O3     2px    ( 0.1384)
                75 O3     2pz    ( 0.1680)  99 O4     2px    (-0.1387) 102 O4     2py    ( 0.1006) 105 O4     2pz    ( 0.1673)
               279 O7     2px    (-0.1383) 285 O7     2pz    (-0.1680) 315 S8     3py    (-0.2064) 319 S8     3pz    (-0.1618)
               346 C9     2py    (-0.2314) 403 O11    2px    ( 0.1388) 406 O11    2py    (-0.1004) 409 O11    2pz    (-0.1672)
               429 H12    1s     ( 0.1154) 443 H13    1s     (-0.1732) 457 H14    1s     ( 0.1148) 471 H15    1s     ( 0.1148)
               485 H16    1s     (-0.1733) 499 H17    1s     ( 0.1155)
         73   -0.5073    2.0000                                                                                                           
                 8 C1     2py    ( 0.2526)  41 S2     3py    ( 0.1832)  45 S2     3pz    ( 0.1967)  75 O3     2pz    ( 0.1942)
               105 O4     2pz    ( 0.1937) 285 O7     2pz    ( 0.1942) 315 S8     3py    ( 0.1833) 319 S8     3pz    ( 0.1967)
               346 C9     2py    ( 0.2526) 409 O11    2pz    ( 0.1937) 429 H12    1s     (-0.1313) 443 H13    1s     ( 0.1856)
               457 H14    1s     (-0.1304) 471 H15    1s     ( 0.1304) 485 H16    1s     (-0.1856) 499 H17    1s     ( 0.1313)
      
         74   -0.5054    2.0000                                                                                                           
                 5 C1     2px    (-0.2190)  37 S2     3px    (-0.2536)  66 O3     2s     ( 0.1847)  69 O3     2px    ( 0.1108)
                72 O3     2py    (-0.2444)  96 O4     2s     (-0.1848)  99 O4     2px    ( 0.1120) 102 O4     2py    ( 0.2437)
               276 O7     2s     ( 0.1847) 279 O7     2px    (-0.1110) 282 O7     2py    ( 0.2443) 311 S8     3px    ( 0.2536)
               343 C9     2px    ( 0.2190) 400 O11    2s     (-0.1848) 403 O11    2px    (-0.1117) 406 O11    2py    (-0.2438)
               429 H12    1s     ( 0.1661) 457 H14    1s     (-0.1666) 471 H15    1s     (-0.1666) 499 H17    1s     ( 0.1661)
      
         75   -0.4987    2.0000                                                                                                           
                 5 C1     2px    ( 0.2516)  37 S2     3px    ( 0.2362)  66 O3     2s     (-0.1807)  69 O3     2px    (-0.1131)
                72 O3     2py    ( 0.2124)  96 O4     2s     ( 0.1799)  99 O4     2px    (-0.1128) 102 O4     2py    (-0.2120)
               138 NP5    6px    ( 0.1039) 276 O7     2s     ( 0.1804) 279 O7     2px    (-0.1128) 282 O7     2py    ( 0.2124)
               311 S8     3px    ( 0.2363) 343 C9     2px    ( 0.2516) 400 O11    2s     (-0.1802) 403 O11    2px    (-0.1131)
               406 O11    2py    (-0.2121) 429 H12    1s     ( 0.1912) 457 H14    1s     (-0.1917) 471 H15    1s     ( 0.1919)
               499 H17    1s     (-0.1910)
         76   -0.4965    2.0000                                                                                                           
                11 C1     2pz    (-0.2004)  41 S2     3py    (-0.1845)  45 S2     3pz    ( 0.2388)  66 O3     2s     (-0.1408)
                69 O3     2px    (-0.2450)  75 O3     2pz    ( 0.1706)  96 O4     2s     (-0.1413)  99 O4     2px    ( 0.2444)
               105 O4     2pz    ( 0.1715) 276 O7     2s     (-0.1411) 279 O7     2px    ( 0.2452) 285 O7     2pz    (-0.1704)
               315 S8     3py    ( 0.1845) 319 S8     3pz    (-0.2389) 349 C9     2pz    ( 0.2004) 400 O11    2s     (-0.1410)
               403 O11    2px    (-0.2442) 409 O11    2pz    (-0.1717)
         77   -0.4919    2.0000                                                                                                           
                11 C1     2pz    (-0.2117)  41 S2     3py    (-0.2280)  45 S2     3pz    ( 0.2232)  66 O3     2s     (-0.1398)
                69 O3     2px    (-0.2475)  75 O3     2pz    ( 0.1405)  96 O4     2s     (-0.1406)  99 O4     2px    ( 0.2473)
               105 O4     2pz    ( 0.1412) 276 O7     2s     ( 0.1398) 279 O7     2px    (-0.2475) 285 O7     2pz    ( 0.1404)
               315 S8     3py    (-0.2280) 319 S8     3pz    ( 0.2232) 349 C9     2pz    (-0.2116) 400 O11    2s     ( 0.1406)
               403 O11    2px    ( 0.2473) 409 O11    2pz    ( 0.1413) 443 H13    1s     (-0.1121) 485 H16    1s     ( 0.1121)
      
         78   -0.4543    2.0000                                                                                                           
                 5 C1     2px    (-0.3006)  37 S2     3px    ( 0.1947)  66 O3     2s     (-0.1221)  69 O3     2px    (-0.1121)
                72 O3     2py    ( 0.1973)  96 O4     2s     ( 0.1222)  99 O4     2px    (-0.1125) 102 O4     2py    (-0.1969)
               276 O7     2s     (-0.1220) 279 O7     2px    ( 0.1122) 282 O7     2py    (-0.1972) 311 S8     3px    (-0.1947)
               343 C9     2px    ( 0.3006) 400 O11    2s     ( 0.1222) 403 O11    2px    ( 0.1123) 406 O11    2py    ( 0.1969)
               429 H12    1s     ( 0.2435) 457 H14    1s     (-0.2437) 471 H15    1s     (-0.2437) 499 H17    1s     ( 0.2435)
      
         79   -0.4496    2.0000                                                                                                           
                 5 C1     2px    ( 0.2756)  37 S2     3px    (-0.2292)  66 O3     2s     ( 0.1539)  69 O3     2px    ( 0.1435)
                72 O3     2py    (-0.2097)  96 O4     2s     (-0.1541)  99 O4     2px    ( 0.1439) 102 O4     2py    ( 0.2095)
               276 O7     2s     (-0.1539) 279 O7     2px    ( 0.1436) 282 O7     2py    (-0.2096) 311 S8     3px    (-0.2292)
               343 C9     2px    ( 0.2756) 400 O11    2s     ( 0.1541) 403 O11    2px    ( 0.1438) 406 O11    2py    ( 0.2095)
               429 H12    1s     ( 0.2246) 457 H14    1s     (-0.2248) 471 H15    1s     ( 0.2247) 499 H17    1s     (-0.2246)
      
         80   -0.4380    2.0000                                                                                                           
                 8 C1     2py    (-0.2897)  11 C1     2pz    (-0.1250)  45 S2     3pz    ( 0.1225)  69 O3     2px    ( 0.1393)
                72 O3     2py    ( 0.1781)  75 O3     2pz    ( 0.1046)  99 O4     2px    (-0.1391) 102 O4     2py    ( 0.1785)
               105 O4     2pz    ( 0.1039) 279 O7     2px    (-0.1392) 282 O7     2py    (-0.1782) 285 O7     2pz    (-0.1047)
               319 S8     3pz    (-0.1225) 346 C9     2py    ( 0.2897) 349 C9     2pz    ( 0.1251) 403 O11    2px    ( 0.1392)
               406 O11    2py    (-0.1785) 409 O11    2pz    (-0.1039) 429 H12    1s     (-0.1134) 443 H13    1s     ( 0.2899)
               457 H14    1s     (-0.1129) 471 H15    1s     (-0.1129) 485 H16    1s     ( 0.2899) 499 H17    1s     (-0.1133)
      
         81   -0.4307    2.0000                                                                                                           
                 8 C1     2py    (-0.2718)  33 S2     3s     ( 0.1114)  41 S2     3py    ( 0.1828)  45 S2     3pz    ( 0.1130)
                69 O3     2px    ( 0.1688)  72 O3     2py    ( 0.1477)  75 O3     2pz    ( 0.1314)  99 O4     2px    (-0.1690)
               102 O4     2py    ( 0.1480) 105 O4     2pz    ( 0.1304) 279 O7     2px    ( 0.1686) 282 O7     2py    ( 0.1478)
               285 O7     2pz    ( 0.1314) 307 S8     3s     (-0.1114) 315 S8     3py    ( 0.1828) 319 S8     3pz    ( 0.1130)
               346 C9     2py    (-0.2717) 403 O11    2px    (-0.1692) 406 O11    2py    ( 0.1478) 409 O11    2pz    ( 0.1304)
               429 H12    1s     ( 0.1159) 443 H13    1s     (-0.2689) 457 H14    1s     ( 0.1154) 471 H15    1s     (-0.1154)
               485 H16    1s     ( 0.2690) 499 H17    1s     (-0.1159)
         82   -0.3761    2.0000                                                                                                           
                75 O3     2pz    ( 0.2535) 105 O4     2pz    (-0.2492) 179 NP5    6d1+   ( 0.2145) 249 O6     2px    (-0.4768)
               285 O7     2pz    (-0.2535) 373 O10    2px    ( 0.4768) 409 O11    2pz    ( 0.2492)
         83   -0.3740    2.0000                                                                                                           
                 8 C1     2py    (-0.1050)  11 C1     2pz    ( 0.1035)  41 S2     3py    ( 0.1834)  72 O3     2py    (-0.1756)
                75 O3     2pz    ( 0.1404) 102 O4     2py    (-0.1735) 105 O4     2pz    ( 0.1474) 167 NP5    6d1-   ( 0.1301)
               173 NP5    6d0    (-0.2205) 246 O6     2s     ( 0.1267) 252 O6     2py    (-0.2886) 255 O6     2pz    (-0.3244)
               282 O7     2py    ( 0.1756) 285 O7     2pz    (-0.1404) 315 S8     3py    (-0.1834) 346 C9     2py    ( 0.1050)
               349 C9     2pz    (-0.1035) 370 O10    2s     ( 0.1267) 376 O10    2py    ( 0.2886) 379 O10    2pz    ( 0.3244)
               406 O11    2py    ( 0.1735) 409 O11    2pz    (-0.1474)
         84   -0.3598    2.0000                                                                                                           
                41 S2     3py    (-0.1243) 130 NP5    6s     (-0.1232) 167 NP5    6d1-   ( 0.1811) 173 NP5    6d0    ( 0.1837)
               246 O6     2s     (-0.1200) 252 O6     2py    (-0.4845) 255 O6     2pz    ( 0.3414) 315 S8     3py    ( 0.1243)
               370 O10    2s     (-0.1200) 376 O10    2py    ( 0.4844) 379 O10    2pz    (-0.3414)
         85   -0.3502    2.0000                                                                                                           
                72 O3     2py    ( 0.1337)  75 O3     2pz    ( 0.4453) 102 O4     2py    (-0.1334) 105 O4     2pz    (-0.4454)
               282 O7     2py    ( 0.1337) 285 O7     2pz    ( 0.4453) 406 O11    2py    (-0.1333) 409 O11    2pz    (-0.4454)
      
         86   -0.3387    2.0000                                                                                                           
                69 O3     2px    (-0.2154)  72 O3     2py    (-0.1950)  75 O3     2pz    (-0.2895)  99 O4     2px    (-0.2157)
               102 O4     2py    ( 0.1937) 105 O4     2pz    ( 0.2900) 179 NP5    6d1+   ( 0.1196) 249 O6     2px    (-0.3422)
               279 O7     2px    ( 0.2150) 282 O7     2py    ( 0.1939) 285 O7     2pz    ( 0.2905) 373 O10    2px    ( 0.3421)
               403 O11    2px    ( 0.2161) 406 O11    2py    (-0.1948) 409 O11    2pz    (-0.2889)
         87   -0.3369    2.0000                                                                                                           
                 8 C1     2py    ( 0.1017)  11 C1     2pz    (-0.1332)  41 S2     3py    (-0.2064)  45 S2     3pz    ( 0.1052)
                52 S2     3d0    (-0.1046)  72 O3     2py    ( 0.2764)  75 O3     2pz    (-0.2321) 102 O4     2py    ( 0.2772)
               105 O4     2pz    (-0.2284) 197 NP5    5f1-   ( 0.1326) 252 O6     2py    ( 0.2436) 282 O7     2py    ( 0.2772)
               285 O7     2pz    (-0.2306) 315 S8     3py    (-0.2064) 319 S8     3pz    ( 0.1052) 326 S8     3d0    ( 0.1046)
               346 C9     2py    ( 0.1017) 349 C9     2pz    (-0.1332) 376 O10    2py    ( 0.2436) 406 O11    2py    ( 0.2764)
               409 O11    2pz    (-0.2298)
         88   -0.3329    2.0000                                                                                                           
                41 S2     3py    (-0.2160)  72 O3     2py    ( 0.2257)  75 O3     2pz    (-0.1881) 102 O4     2py    ( 0.2274)
               105 O4     2pz    (-0.1881) 130 NP5    6s     ( 0.2100) 173 NP5    6d0    (-0.1241) 246 O6     2s     ( 0.1177)
               252 O6     2py    (-0.2011) 255 O6     2pz    (-0.3844) 282 O7     2py    (-0.2257) 285 O7     2pz    ( 0.1881)
               315 S8     3py    ( 0.2160) 370 O10    2s     ( 0.1177) 376 O10    2py    ( 0.2010) 379 O10    2pz    ( 0.3844)
               406 O11    2py    (-0.2275) 409 O11    2pz    ( 0.1881)
         89   -0.3268    2.0000                                                                                                           
                69 O3     2px    (-0.3351)  72 O3     2py    (-0.1843)  75 O3     2pz    ( 0.2713)  99 O4     2px    (-0.3333)
               102 O4     2py    ( 0.1847) 105 O4     2pz    (-0.2725) 249 O6     2px    ( 0.1641) 279 O7     2px    ( 0.3359)
               282 O7     2py    ( 0.1854) 285 O7     2pz    (-0.2718) 373 O10    2px    (-0.1628) 403 O11    2px    ( 0.3343)
               406 O11    2py    (-0.1848) 409 O11    2pz    ( 0.2726)
         90   -0.3266    2.0000                                                                                                           
                69 O3     2px    ( 0.2883)  72 O3     2py    ( 0.1909)  99 O4     2px    ( 0.2873) 102 O4     2py    (-0.1927)
               105 O4     2pz    ( 0.1015) 205 NP5    5f1+   ( 0.1914) 249 O6     2px    ( 0.4211) 279 O7     2px    ( 0.2871)
               282 O7     2py    ( 0.1907) 373 O10    2px    ( 0.4217) 403 O11    2px    ( 0.2864) 406 O11    2py    (-0.1918)
               409 O11    2pz    ( 0.1005)
         91   -0.3164    2.0000                                                                                                           
                72 O3     2py    ( 0.1344) 102 O4     2py    ( 0.1340) 146 NP5    6py    ( 0.3306) 197 NP5    5f1-   (-0.2198)
               252 O6     2py    (-0.5807) 282 O7     2py    ( 0.1344) 376 O10    2py    (-0.5808) 406 O11    2py    ( 0.1340)
      
         92   -0.3149    2.0000                                                                                                           
                69 O3     2px    ( 0.2546)  72 O3     2py    ( 0.1850)  99 O4     2px    ( 0.2534) 102 O4     2py    (-0.1861)
               138 NP5    6px    ( 0.2634) 205 NP5    5f1+   (-0.1826) 249 O6     2px    (-0.4672) 279 O7     2px    ( 0.2544)
               282 O7     2py    ( 0.1851) 373 O10    2px    (-0.4672) 403 O11    2px    ( 0.2535) 406 O11    2py    (-0.1861)
      
         93   -0.2890    2.0000                                                                                                           
                41 S2     3py    (-0.1332) 154 NP5    6pz    ( 0.4310) 201 NP5    5f0    (-0.6165) 255 O6     2pz    ( 0.4723)
               315 S8     3py    (-0.1332) 379 O10    2pz    ( 0.4723)
         94   -0.2323    2.0000                                                                                                           
                11 C1     2pz    (-0.2217)  33 S2     3s     ( 0.2123)  41 S2     3py    ( 0.3308)  45 S2     3pz    ( 0.3289)
                72 O3     2py    (-0.1878)  75 O3     2pz    (-0.3049) 102 O4     2py    (-0.1881) 105 O4     2pz    (-0.3051)
               252 O6     2py    (-0.1417) 282 O7     2py    ( 0.1878) 285 O7     2pz    ( 0.3049) 307 S8     3s     ( 0.2123)
               315 S8     3py    (-0.3308) 319 S8     3pz    (-0.3289) 349 C9     2pz    ( 0.2217) 376 O10    2py    ( 0.1417)
               406 O11    2py    ( 0.1881) 409 O11    2pz    ( 0.3051)
         95   -0.2282    2.0000                                                                                                           
                11 C1     2pz    (-0.2056)  33 S2     3s     ( 0.2149)  41 S2     3py    ( 0.3342)  45 S2     3pz    ( 0.3157)
                72 O3     2py    (-0.2210)  75 O3     2pz    (-0.2887) 102 O4     2py    (-0.2212) 105 O4     2pz    (-0.2887)
               154 NP5    6pz    ( 0.1597) 201 NP5    5f0    (-0.1580) 255 O6     2pz    ( 0.1295) 282 O7     2py    (-0.2210)
               285 O7     2pz    (-0.2887) 307 S8     3s     (-0.2148) 315 S8     3py    ( 0.3341) 319 S8     3pz    ( 0.3157)
               349 C9     2pz    (-0.2056) 379 O10    2pz    ( 0.1295) 406 O11    2py    (-0.2212) 409 O11    2pz    (-0.2887)
      
         96    0.0000    0.5000                                                                                                           
               193 NP5    5f2-   ( 0.4594) 209 NP5    5f2+   (-0.8772)
         97    0.0000    0.5000                                                                                                           
               189 NP5    5f3-   ( 0.6258) 213 NP5    5f3+   ( 0.7632)
         98    0.0000    0.5000                                                                                                           
               193 NP5    5f2-   ( 0.8725) 209 NP5    5f2+   ( 0.4612) 213 NP5    5f3+   (-0.1228)
         99    0.0000    0.5000                                                                                                           
               189 NP5    5f3-   ( 0.7703) 193 NP5    5f2-   (-0.1105) 213 NP5    5f3+   (-0.6174)
        100    0.1433    0.0000                                                                                                           
                 1 C1     1s     (-0.3414)   2 C1     2s     (-2.0191)   3 C1     3s     (-1.0446)   4 C1     4s     (-0.1394)
                 8 C1     2py    (-0.4776)   9 C1     3py    (-0.2874)  11 C1     2pz    ( 0.2560)  12 C1     3pz    ( 0.1485)
                33 S2     3s     ( 0.1103)  41 S2     3py    (-0.2310)  42 S2     4py    (-0.2154)  46 S2     4pz    ( 0.1050)
               146 NP5    6py    (-0.3123) 147 NP5    7py    (-0.7713) 148 NP5    8py    (-0.1985) 307 S8     3s     (-0.1103)
               315 S8     3py    (-0.2310) 316 S8     4py    (-0.2154) 320 S8     4pz    ( 0.1049) 339 C9     1s     ( 0.3414)
               340 C9     2s     ( 2.0188) 341 C9     3s     ( 1.0444) 342 C9     4s     ( 0.1394) 346 C9     2py    (-0.4775)
               347 C9     3py    (-0.2874) 349 C9     2pz    ( 0.2560) 350 C9     3pz    ( 0.1485) 429 H12    1s     (-1.3405)
               430 H12    2s     (-1.1235) 432 H12    2px    ( 0.2686) 433 H12    3px    ( 0.1672) 434 H12    2py    (-0.1788)
               435 H12    3py    (-0.1157) 443 H13    1s     ( 0.3004) 444 H13    2s     ( 0.4760) 445 H13    3s     ( 0.1381)
               457 H14    1s     (-1.3388) 458 H14    2s     (-1.1218) 460 H14    2px    (-0.2694) 461 H14    3px    (-0.1677)
               462 H14    2py    (-0.1775) 463 H14    3py    (-0.1148) 471 H15    1s     ( 1.3386) 472 H15    2s     ( 1.1216)
               474 H15    2px    (-0.2695) 475 H15    3px    (-0.1678) 476 H15    2py    (-0.1773) 477 H15    3py    (-0.1147)
               485 H16    1s     (-0.3004) 486 H16    2s     (-0.4761) 487 H16    3s     (-0.1381) 499 H17    1s     ( 1.3412)
               500 H17    2s     ( 1.1241) 502 H17    2px    ( 0.2686) 503 H17    3px    ( 0.1672) 504 H17    2py    (-0.1791)
               505 H17    3py    (-0.1158)
        101    0.1445    0.0000                                                                                                           
                 1 C1     1s     (-0.3477)   2 C1     2s     (-2.0625)   3 C1     3s     (-1.0737)   4 C1     4s     (-0.1444)
                 8 C1     2py    (-0.4895)   9 C1     3py    (-0.2926)  11 C1     2pz    ( 0.2510)  12 C1     3pz    ( 0.1441)
                41 S2     3py    (-0.1763)  42 S2     4py    (-0.1789) 130 NP5    6s     (-0.1554) 131 NP5    7s     (-0.4148)
               173 NP5    6d0    ( 0.1609) 174 NP5    7d0    ( 0.1097) 185 NP5    6d2+   ( 0.1223) 186 NP5    7d2+   ( 0.1067)
               315 S8     3py    ( 0.1763) 316 S8     4py    ( 0.1790) 339 C9     1s     (-0.3477) 340 C9     2s     (-2.0628)
               341 C9     3s     (-1.0738) 342 C9     4s     (-0.1444) 346 C9     2py    ( 0.4896) 347 C9     3py    ( 0.2927)
               349 C9     2pz    (-0.2510) 350 C9     3pz    (-0.1442) 429 H12    1s     ( 1.3557) 430 H12    2s     ( 1.1327)
               432 H12    2px    (-0.2739) 433 H12    3px    (-0.1704) 434 H12    2py    ( 0.1810) 435 H12    3py    ( 0.1170)
               443 H13    1s     (-0.3647) 444 H13    2s     (-0.5524) 445 H13    3s     (-0.1535) 457 H14    1s     ( 1.3536)
               458 H14    2s     ( 1.1307) 460 H14    2px    ( 0.2747) 461 H14    3px    ( 0.1709) 462 H14    2py    ( 0.1796)
               463 H14    3py    ( 0.1162) 471 H15    1s     ( 1.3530) 472 H15    2s     ( 1.1302) 474 H15    2px    (-0.2747)
               475 H15    3px    (-0.1709) 476 H15    2py    (-0.1793) 477 H15    3py    (-0.1160) 485 H16    1s     (-0.3647)
               486 H16    2s     (-0.5523) 487 H16    3s     (-0.1534) 499 H17    1s     ( 1.3559) 500 H17    2s     ( 1.1329)
               502 H17    2px    ( 0.2738) 503 H17    3px    ( 0.1703) 504 H17    2py    (-0.1812) 505 H17    3py    (-0.1171)
      
--
 
      Von Neumann Entropy (Root  1) =  1.96852
 

      Mulliken population analysis for root number:  1
      -----------------------------------------------
 
 
++    Molecular charges:
      ------------------
 
      Mulliken charges per centre and basis function type
      ---------------------------------------------------
 
                C1      S2      O3      O4      NP5     O6      O7      S8      C9      O10     O11     H12   
      1s       2.0019  2.0000  1.9990  1.9990  2.0000  1.9995  1.9990  2.0000  2.0019  1.9995  1.9990  0.8700
      2s       1.3376  1.9988  1.8689  1.8689  2.0000  1.8978  1.8689  1.9988  1.3376  1.8978  1.8689 -0.0139
      2px      0.9952  2.0015  1.4330  1.4308  2.0000  1.6762  1.4327  2.0015  0.9952  1.6762  1.4312  0.0043
      2pz      0.8902  2.0006  1.8249  1.8253  2.0000  1.4205  1.8249  2.0006  0.8903  1.4206  1.8253  0.0163
      2py      1.0173  2.0002  1.5786  1.5802  2.0000  1.7008  1.5790  2.0002  1.0173  1.7008  1.5798  0.0087
      3s       0.0328  1.5803  0.0025  0.0025  2.0000  0.0091  0.0025  1.5803  0.0328  0.0091  0.0025 -0.0048
      3px     -0.0104  0.6553 -0.0002 -0.0002  2.0000  0.0056 -0.0002  0.6553 -0.0104  0.0056 -0.0002 -0.0071
      3pz     -0.0050  1.0880 -0.0134 -0.0134  2.0000 -0.0130 -0.0134  1.0880 -0.0050 -0.0130 -0.0134  0.0008
      3py     -0.0142  1.1926 -0.0132 -0.0132  2.0000 -0.0025 -0.0132  1.1925 -0.0142 -0.0024 -0.0132 -0.0020
      4s       0.0065  0.0136  0.0059  0.0059  2.0001  0.0045  0.0059  0.0136  0.0065  0.0045  0.0059  0.0000
      3d2+     0.0109  0.1859  0.0087  0.0087  2.0000  0.0002  0.0087  0.1859  0.0109  0.0002  0.0087  0.0019
      3d1+     0.0061  0.1261  0.0064  0.0064  2.0000  0.0095  0.0064  0.1261  0.0061  0.0095  0.0064  0.0014
      3d0      0.0256  0.1679  0.0032  0.0032  2.0000  0.0097  0.0032  0.1679  0.0256  0.0097  0.0032  0.0005
      3d1-     0.0130  0.0968  0.0026  0.0026  2.0000  0.0094  0.0026  0.0968  0.0130  0.0094  0.0026  0.0007
      3d2-     0.0189  0.1672  0.0094  0.0094  2.0000  0.0003  0.0094  0.1672  0.0189  0.0003  0.0094  0.0006
      4px     -0.0010  0.0282  0.0015  0.0015  2.0000  0.0006  0.0015  0.0282 -0.0010  0.0006  0.0015  0.0000
      4pz     -0.0005 -0.0043 -0.0001 -0.0001  2.0000  0.0008 -0.0001 -0.0043 -0.0005  0.0008 -0.0001  0.0000
      4py     -0.0015 -0.0148 -0.0002 -0.0002  2.0000 -0.0012 -0.0002 -0.0148 -0.0015 -0.0012 -0.0002  0.0000
      5s       0.0000  0.0060  0.0000  0.0000  2.0009  0.0000  0.0000  0.0060  0.0000  0.0000  0.0000  0.0000
      4d2+    -0.0002  0.0010  0.0020  0.0021  2.0000 -0.0000  0.0020  0.0010 -0.0002 -0.0000  0.0020  0.0000
      4d1+     0.0007 -0.0002  0.0011  0.0011  2.0000  0.0016  0.0011 -0.0002  0.0007  0.0016  0.0011  0.0000
      4d0      0.0010  0.0032  0.0000  0.0000  2.0000 -0.0015  0.0000  0.0032  0.0010 -0.0015  0.0000  0.0000
      4d1-     0.0013  0.0006  0.0005  0.0005  2.0000  0.0016  0.0005  0.0006  0.0013  0.0016  0.0005  0.0000
      4d2-    -0.0006  0.0016  0.0007  0.0007  2.0000 -0.0000  0.0007  0.0016 -0.0006 -0.0000  0.0007  0.0000
      5px      0.0000 -0.0024  0.0000  0.0000  1.9999  0.0000  0.0000 -0.0024  0.0000  0.0000  0.0000  0.0000
      5pz      0.0000 -0.0002  0.0000  0.0000  1.9994  0.0000  0.0000 -0.0002  0.0000  0.0000  0.0000  0.0000
      5py      0.0000 -0.0019  0.0000  0.0000  1.9998  0.0000  0.0000 -0.0019  0.0000  0.0000  0.0000  0.0000
      6s       0.0000  0.0000  0.0000  0.0000  1.9777  0.0000  0.0000  0.0000  0.0000  0.0000  0.0000  0.0000
      4f3+     0.0000  0.0360  0.0010  0.0010  2.0000 -0.0000  0.0010  0.0360  0.0000 -0.0000  0.0010  0.0000
      4f2+     0.0004  0.0024  0.0001  0.0001  2.0000  0.0001  0.0001  0.0024  0.0004  0.0001  0.0001  0.0000
      4f1+     0.0010  0.0111  0.0004  0.0004  2.0000  0.0011  0.0004  0.0111  0.0010  0.0011  0.0004  0.0000
      4f0      0.0022  0.0253  0.0006  0.0006  2.0000  0.0013  0.0006  0.0253  0.0022  0.0013  0.0006  0.0000
      4f1-     0.0017  0.0081  0.0003  0.0003  2.0000  0.0011  0.0003  0.0081  0.0017  0.0011  0.0003  0.0000
      4f2-     0.0001  0.0225  0.0006  0.0006  2.0000  0.0001  0.0006  0.0225  0.0001  0.0001  0.0006  0.0000
      4f3-     0.0027  0.0199  0.0007  0.0007  2.0000  0.0000  0.0007  0.0199  0.0027  0.0000  0.0007  0.0000
      5d2+     0.0000  0.0000  0.0000  0.0000  1.9998  0.0000  0.0000  0.0000  0.0000  0.0000  0.0000  0.0000
      5d1+     0.0000  0.0000  0.0000  0.0000  1.9993  0.0000  0.0000  0.0000  0.0000  0.0000  0.0000  0.0000
      5d0      0.0000  0.0000  0.0000  0.0000  1.9969  0.0000  0.0000  0.0000  0.0000  0.0000  0.0000  0.0000
      5d1-     0.0000  0.0000  0.0000  0.0000  1.9994  0.0000  0.0000  0.0000  0.0000  0.0000  0.0000  0.0000
      5d2-     0.0000  0.0000  0.0000  0.0000  1.9997  0.0000  0.0000  0.0000  0.0000  0.0000  0.0000  0.0000
      6px      0.0000  0.0000  0.0000  0.0000  1.9789  0.0000  0.0000  0.0000  0.0000  0.0000  0.0000  0.0000
      6pz      0.0000  0.0000  0.0000  0.0000  1.8048  0.0000  0.0000  0.0000  0.0000  0.0000  0.0000  0.0000
      6py      0.0000  0.0000  0.0000  0.0000  1.9764  0.0000  0.0000  0.0000  0.0000  0.0000  0.0000  0.0000
      7s       0.0000  0.0000  0.0000  0.0000  0.0997  0.0000  0.0000  0.0000  0.0000  0.0000  0.0000  0.0000
[...]
 
 
      ********************************************************************************
      *                                                                              *
      *                             General data section                             *
      *                                                                              *
      ********************************************************************************
 
   Specific data for JOBIPH file 
 JOB001                                                                         
                                                  
   -------------------------------------
 
   Header from SEWARD:
                                                                               
        Integrals generated by seward 4.2.0  , Fri Nov 16 09:47:01 2018        
 
   CASSCF title (first line only):
       (No title given)                                                        
 
   STATE IRREP:                             1
   SPIN MULTIPLICITY:                       3
   ACTIVE ELECTRONS:                        2
   MAX RAS1 HOLES:                          0
   MAX RAS3 ELECTRONS:                      0
   NR OF CONFIG:                            6
 
   Specific data for JOBIPH file 
 JOB002                                                                         
                                                  
   -------------------------------------
 
   Header from SEWARD:
                                                                               
        Integrals generated by seward 4.2.0  , Fri Nov 16 09:47:01 2018        
 
   CASSCF title (first line only):
       (No title given)                                                        
 
   STATE IRREP:                             1
   SPIN MULTIPLICITY:                       1
   ACTIVE ELECTRONS:                        2
   MAX RAS1 HOLES:                          0
   MAX RAS3 ELECTRONS:                      0
   NR OF CONFIG:                           10
 
   The following data are common to all the states:
   ------------------------------------------------
   (note: frozen counts as inactive, deleted as secondary)
 
      NR of irreps: 1
 
                 Total     No./Irrep 
      Irrep                  1
                             a
 
      INACTIVE      95      95
      ACTIVE         4       4
      SECONDARY    413     413
      BASIS        512     512
 
      RAS1           0       0
      RAS2           4       4
      RAS3           0       0
 
        MATRIX ELEMENTS WILL BE COMPUTED FOR THE FOLLOWING ONE-ELECTRON OPERATOR
 S, UNLESS ZERO BY SYMMETRY.
   (Herm=Hermitian, Anti=Antihermitian, Sing=Singlet operator, Trip=Triplet oper
 ator)
     MLTPL  1   1 (HERMSING)     MLTPL  1   2 (HERMSING)     MLTPL  1   3 (HERMSING)
     MLTPL  2   1 (HERMSING)     MLTPL  2   2 (HERMSING)     MLTPL  2   3 (HERMSING)
     MLTPL  2   4 (HERMSING)     MLTPL  2   5 (HERMSING)     MLTPL  2   6 (HERMSING)
     VELOCITY   1 (ANTISING)     VELOCITY   2 (ANTISING)     VELOCITY   3 (ANTISING)
     ANGMOM     1 (ANTISING)     ANGMOM     2 (ANTISING)     ANGMOM     3 (ANTISING)
     AMFI       1 (ANTITRIP)     AMFI       2 (ANTITRIP)     AMFI       3 (ANTITRIP)
 
       EIGENSTATES OF A SPIN-FREE HAMILTONIAN WILL BE COMPUTED BASED ON:
 
  a Hamiltonian matrix assumed to be diagonal with energies read from the wavefu
 nction file(s).
  SO coupling elements will be added.
       EIGENSTATES OF SPIN-ORBIT HAMILTONIAN WILL BE COMPUTED
        MATRIX ELEMENTS OVER SPIN EIGENSTATES FOR:
     MLTPL  1   1 (HERMSING)     MLTPL  1   2 (HERMSING)     MLTPL  1   3 (HERMSING)
     MLTPL  2   1 (HERMSING)     MLTPL  2   2 (HERMSING)     MLTPL  2   3 (HERMSING)
     MLTPL  2   4 (HERMSING)     MLTPL  2   5 (HERMSING)     MLTPL  2   6 (HERMSING)
     VELOCITY   1 (ANTISING)     VELOCITY   2 (ANTISING)     VELOCITY   3 (ANTISING)
     ANGMOM     1 (ANTISING)     ANGMOM     2 (ANTISING)     ANGMOM     3 (ANTISING)
 
  Nr of states:                    16
 
   State:        1   2   3   4   5   6   7   8   9  10  11  12  13  14  15  16
  JobIph:        1   1   1   1   1   1   2   2   2   2   2   2   2   2   2   2
 Root nr:        1   2   3   4   5   6   1   2   3   4   5   6   7   8   9  10
 
  HAMILTONIAN MATRIX FOR THE ORIGINAL STATES:
 
  Diagonal, with energies
 -30066.14556729 -30066.14480912 -30066.13830695 -30066.10722520 -30066.10451491
 -30066.06299922 -30066.12615362 -30066.10374267 -30066.10281758 -30066.09785786
 -30066.09637217 -30066.06855584 -30066.06510977 -30066.06363060 -30066.06008781
 -30066.00359623
 
      OVERLAP MATRIX FOR THE ORIGINAL STATES:
 
  Diagonal, with elements
      1.00000000      1.00000000      1.00000000      1.00000000      1.00000000
      1.00000000      1.00000000      1.00000000      1.00000000      1.00000000
      1.00000000      1.00000000      1.00000000      1.00000000      1.00000000
      1.00000000
 
::    RASSI State    1     Total energy: -30066.14556729
::    RASSI State    2     Total energy: -30066.14480912
::    RASSI State    3     Total energy: -30066.13830695
::    RASSI State    4     Total energy: -30066.10722520
::    RASSI State    5     Total energy: -30066.10451491
::    RASSI State    6     Total energy: -30066.06299922
::    RASSI State    7     Total energy: -30066.12615362
::    RASSI State    8     Total energy: -30066.10374267
::    RASSI State    9     Total energy: -30066.10281758
::    RASSI State   10     Total energy: -30066.09785786
::    RASSI State   11     Total energy: -30066.09637217
::    RASSI State   12     Total energy: -30066.06855584
::    RASSI State   13     Total energy: -30066.06510977
::    RASSI State   14     Total energy: -30066.06363060
::    RASSI State   15     Total energy: -30066.06008781
::    RASSI State   16     Total energy: -30066.00359623
 
 
 
      ****************************************************************************************************
      *                                                                                                  *
      *                                         Spin-free section                                        *
      *                                                                                                  *
      ****************************************************************************************************
 
 
 
  SPIN-FREE ENERGIES:
  (Shifted by EVAC (a.u.) =     -30066.1455672920)
 
 SF State       Relative EVAC(au)   Rel lowest level(eV)    D:o, cm**(-1)
 
     1             0.0000000000        0.0000000000              0.0000
     2             0.0007581756        0.0206310096            166.4003
     3             0.0072603462        0.1975640840           1593.4618
     4             0.0383420901        1.0433414144           8415.1161
     5             0.0410523810        1.1170921865           9009.9562
     6             0.0825680745        2.2467917474          18121.5977
     7             0.0194136740        0.5282729779           4260.8089
     8             0.0418246259        1.1381060401           9179.4443
     9             0.0427497089        1.1632788298           9382.4766
    10             0.0477094350        1.2982398533          10471.0107
    11             0.0491951260        1.3386675640          10797.0821
    12             0.0770114508        2.0955883159          16902.0598
    13             0.0804575181        2.1893605825          17658.3841
    14             0.0819366886        2.2296108631          17983.0245
    15             0.0854794782        2.3260150791          18760.5770
    16             0.1419710593        3.8632292981          31159.0459
 
++ Dipole transition strengths (spin-free states):
   -----------------------------------------------
     for osc. strength at least  1.00000000E-05
 
  ( Max oscillator strength is only   4.297071639999412E-010 )
--
 
++ Velocity transition strengths (spin-free states):
   -------------------------------------------------
     for osc. strength at least  1.00000000E-05
 
  ( Max oscillator strength is only   2.234699085415877E-008 )
--
 
 --------------------------------------------------
 
 A comparison between the dipole oscillator strengths in 
 length and velocity gauge will be performed
 
 All dipole oscillator differences above the tolerance of 
  0.100000000000000       will be printed 
 
 Due to basis set deficiency these oscillator may be problematic 
 
 The tolerance is defined as ABS(1-O_l/O_v) 
 O_l : dipole oscillator strength in length gauge
 O_p : dipole oscillator strength in velocity gauge
 
 --------------------------------------------------
 
 No problematic oscillator strengths above the tolerance 
  0.100000000000000       have been found
 
 
 
 
      ****************************************************************************************************
      *                                                                                                  *
      *                                         Spin-orbit section                                       *
      *                                                                                                  *
      ****************************************************************************************************
 
 
 Complex SO-Hamiltonian matrix elements over
 spin components of spin-free eigenstates (SFS):
 (In cm-1. Print threshold:   2000.000 cm-1)
 ----------------------------------------------------------------------
 
  I1  S1  MS1    I2  S2  MS2    Real part    Imag part      Absolute
     4  1.0 -1.0    1  1.0 -1.0         0.000      5146.699      5146.699
     6  1.0  1.0    3  1.0  1.0         0.000     -5146.699      5146.699
    19  0.0  0.0    8  1.0  0.0         0.000     -4316.612      4316.612
    20  0.0  0.0   11  1.0  0.0         0.000      5407.114      5407.114
    21  0.0  0.0    8  1.0  0.0         0.000      2211.551      2211.551
    22  0.0  0.0   14  1.0  0.0         0.000     -4868.602      4868.602
    28  0.0  0.0   17  1.0  0.0         0.000      6012.019      6012.019
 ----------------------------------------------------------------------
 
       Total energies including SO-coupling:
::    SO-RASSI State    1     Total energy: -30066.17216810
::    SO-RASSI State    2     Total energy: -30066.17180458
::    SO-RASSI State    3     Total energy: -30066.15793581
::    SO-RASSI State    4     Total energy: -30066.15150757
::    SO-RASSI State    5     Total energy: -30066.15073218
::    SO-RASSI State    6     Total energy: -30066.14203893
::    SO-RASSI State    7     Total energy: -30066.14036866
::    SO-RASSI State    8     Total energy: -30066.13188358
::    SO-RASSI State    9     Total energy: -30066.12721780
::    SO-RASSI State   10     Total energy: -30066.12211059
::    SO-RASSI State   11     Total energy: -30066.11992892
::    SO-RASSI State   12     Total energy: -30066.11540083
::    SO-RASSI State   13     Total energy: -30066.10659934
::    SO-RASSI State   14     Total energy: -30066.10369888
::    SO-RASSI State   15     Total energy: -30066.10200121
::    SO-RASSI State   16     Total energy: -30066.10032914
::    SO-RASSI State   17     Total energy: -30066.09856274
::    SO-RASSI State   18     Total energy: -30066.09366973
::    SO-RASSI State   19     Total energy: -30066.08535032
::    SO-RASSI State   20     Total energy: -30066.08384483
::    SO-RASSI State   21     Total energy: -30066.07172030
::    SO-RASSI State   22     Total energy: -30066.06466648
::    SO-RASSI State   23     Total energy: -30066.06320091
::    SO-RASSI State   24     Total energy: -30066.06127207
::    SO-RASSI State   25     Total energy: -30066.05740502
::    SO-RASSI State   26     Total energy: -30066.05714337
::    SO-RASSI State   27     Total energy: -30066.05441467
::    SO-RASSI State   28     Total energy: -30065.99121564
 
 
   Eigenvalues of complex Hamiltonian:
   -----------------------------------
 
  (Shifted by EVAC (a.u.) =    -30066.145567292)
 
          Relative EVac(au)    Rel lowest level(eV)    D:o, cm**(-1)
 
     1       -0.0266008076          0.0000000000              0.0000
     2       -0.0262372896          0.0098918282             79.7830
     3       -0.0123685186          0.3872803106           3123.6264
     4       -0.0059402812          0.5622015587           4534.4614
     5       -0.0051648909          0.5833010040           4704.6399
     6        0.0035283617          0.8198564565           6612.5883
     7        0.0051986370          0.8653069628           6979.1714
     8        0.0136837155          1.0961977080           8841.4309
     9        0.0183494890          1.2231598728           9865.4498
    10        0.0234567032          1.3621342499          10986.3537
    11        0.0256383718          1.4215004758          11465.1746
    12        0.0301664597          1.5447160233          12458.9751
    13        0.0389679492          1.7842167532          14390.6787
    14        0.0418684139          1.8631424180          15027.2572
    15        0.0435660792          1.9093382444          15399.8516
    16        0.0452381487          1.9548375709          15766.8284
    17        0.0470045559          2.0029039601          16154.5100
    18        0.0518975641          2.1360494956          17228.4012
    19        0.0602169678          2.3624319997          19054.2993
    20        0.0617224572          2.4033984536          19384.7160
    21        0.0738469879          2.7333237381          22045.7429
    22        0.0809008157          2.9252681689          23593.8791
    23        0.0823663859          2.9651483659          23915.5346
    24        0.0842952225          3.0176346824          24338.8653
    25        0.0881622745          3.1228625283          25187.5851
    26        0.0884239234          3.1299823565          25245.0104
    27        0.0911526218          3.2042340219          25843.8905
    28        0.1543516498          4.9239671709          39714.4739
 
 
 Weights of the five most important spin-orbit-free states for each spin-orbit s
 tate.
 
 SO State  Total energy (au)           Spin-free states, spin, and weights
 -------------------------------------------------------------------------------
 ------------------------
    1        -0.026601       1 1.0  0.4783    2 1.0  0.4639    9 0.0  0.0185    7 0.0  0.0154    5 1.0  0.0092
    2        -0.026237       1 1.0  0.4924    2 1.0  0.4640   11 0.0  0.0269    4 1.0  0.0083    5 1.0  0.0082
    3        -0.012369       3 1.0  0.6508    7 0.0  0.2027    4 1.0  0.0414    5 1.0  0.0339    9 0.0  0.0306
    4        -0.005940       1 1.0  0.4685    3 1.0  0.3170    4 1.0  0.1099    8 0.0  0.1035   14 0.0  0.0006
    5        -0.005165       2 1.0  0.5154    3 1.0  0.3221    5 1.0  0.0779   10 0.0  0.0649    9 0.0  0.0112
    6         0.003528       1 1.0  0.5115    3 1.0  0.3663    4 1.0  0.0974    8 0.0  0.0208   14 0.0  0.0033
    7         0.005199       2 1.0  0.4675    3 1.0  0.4180    5 1.0  0.0844   10 0.0  0.0168    7 0.0  0.0058
    8         0.013684       2 1.0  0.2911    7 0.0  0.2887    1 1.0  0.1860    4 1.0  0.0987    5 1.0  0.0893
    9         0.018349       2 1.0  0.4297    1 1.0  0.4001    4 1.0  0.0823    5 1.0  0.0663   15 0.0  0.0193
   10         0.023457       8 0.0  0.3755    3 1.0  0.3056    4 1.0  0.3022    1 1.0  0.0101    6 1.0  0.0051
   11         0.025638       5 1.0  0.3319   10 0.0  0.2361    3 1.0  0.2357    9 0.0  0.0884    1 1.0  0.0381
   12         0.030166       7 0.0  0.2609    1 1.0  0.2326    2 1.0  0.1412    5 1.0  0.1128    4 1.0  0.0834
   13         0.038968       4 1.0  0.6733    5 1.0  0.1528    2 1.0  0.0860    1 1.0  0.0346   11 0.0  0.0329
   14         0.041868       4 1.0  0.5525    9 0.0  0.2067    5 1.0  0.1480   10 0.0  0.0384    2 1.0  0.0357
   15         0.043566       5 1.0  0.7574    4 1.0  0.1829    1 1.0  0.0310   11 0.0  0.0207   15 0.0  0.0068
   16         0.045238       5 1.0  0.4571    3 1.0  0.1882    7 0.0  0.1622    6 1.0  0.0810    4 1.0  0.0495
   17         0.047005       9 0.0  0.5445    5 1.0  0.1387    4 1.0  0.1140   10 0.0  0.0693    3 1.0  0.0596
   18         0.051898      11 0.0  0.9091    4 1.0  0.0518    1 1.0  0.0222    8 0.0  0.0073    5 1.0  0.0069
   19         0.060217       4 1.0  0.4169    8 0.0  0.3673    6 1.0  0.1941    3 1.0  0.0104   11 0.0  0.0062
   20         0.061722       5 1.0  0.3684   10 0.0  0.3577    6 1.0  0.2311    9 0.0  0.0189   12 0.0  0.0110
   21         0.073847      12 0.0  0.4479    6 1.0  0.3974   16 0.0  0.0340    9 0.0  0.0281    4 1.0  0.0233
   22         0.080901      13 0.0  0.7509    6 1.0  0.1411   12 0.0  0.0515   16 0.0  0.0133    9 0.0  0.0115
   23         0.082366      14 0.0  0.9851   15 0.0  0.0083    1 1.0  0.0039    4 1.0  0.0012    6 1.0  0.0009
   24         0.084295      12 0.0  0.3500    6 1.0  0.2971   13 0.0  0.2072   16 0.0  0.0353    5 1.0  0.0334
   25         0.088162      15 0.0  0.9351    1 1.0  0.0188    2 1.0  0.0176    6 1.0  0.0084    5 1.0  0.0082
   26         0.088424       6 1.0  0.7910    8 0.0  0.1234    4 1.0  0.0700   15 0.0  0.0102    1 1.0  0.0028
   27         0.091153       6 1.0  0.6559   10 0.0  0.1325   12 0.0  0.0929    5 1.0  0.0858    9 0.0  0.0135
   28         0.154352      16 0.0  0.8636    6 1.0  0.1219    5 1.0  0.0080    4 1.0  0.0049    9 0.0  0.0006
 -------------------------------------------------------------------------------
 ------------------------
 
 
      ****************************************************************************************************
      *                                                                                                  *
      *                                    Special properties section                                    *
      *                                                                                                  *
      ****************************************************************************************************
 
 
 
 --------------------------------------------------
 
 A comparison between the dipole oscillator strengths in 
 length and velocity gauge will be performed
 
 All dipole oscillator differences above the tolerance of 
  0.100000000000000       will be printed 
 
 Due to basis set deficiency these oscillator may be problematic 
 
 The tolerance is defined as ABS(1-O_l/O_v) 
 O_l : dipole oscillator strength in length gauge
 O_p : dipole oscillator strength in velocity gauge
 
 --------------------------------------------------
 
 No problematic oscillator strengths above the tolerance 
  0.100000000000000       have been found
 
 ###############################################################################
 ###############################################################################
 ###                                                                         ###
 ###                                                                         ###
 ###    RunFile label nBas                                                   ###
 ###    was used     4936 times                                              ###
 ###                                                                         ###
 ###                                                                         ###
 ###############################################################################
 ###############################################################################
--- Stop Module: rassi at Fri Nov 16 20:05:31 2018 /rc=_RC_ALL_IS_WELL_ ---
*** files: NpO2_CH3SO2_CH3SO2-m1-triplet.rassi-SO-casscf-xmscaspt2.VTZP.rassi.h5 xmldump
    saved to directory /home/vallet/John-methylsulfonyl/NpO2_CH3SO2_CH3SO2-m1/optg-freq-pbe0/SO-XMS
--- Module rassi spent 15 seconds ---

    Timing: Wall=37206.97 User=127507.36 System=16562.02
