   This run of MOLCAS is using the pymolcas driver

                             OPE
                             OPE          NMOL  CASOP  ENMOLC A   SO
                 OPE        NMOLC        AS  OP EN  MO LC     AS  OP
                OPENM       OL CA        SO  PE NM  OL CA     SOP EN
                OP EN      MO   LC       AS  OP ENMOL  CASO   PENMOL
                OP  EN     MO   LC       AS  OP EN     MO     LC ASO
               OP   E  NMOL  C  AS       OP  EN MO     LC     AS  OP
               OP  E   NMO   LC AS        OPEN  MO     LCASOP EN   M
               O  PEN   MO  LCA  SO
            OPE   NMO   L   CAS    OP
        OPENMOL  CASOP     ENMOL   CASOPE
     OPENMOLCA   SOPENMOLCASOPEN   MOLCASOPE
    OPENMOLCAS   OP           EN   MOL    CAS
    OPENMOLCAS       OP  ENM        O     LCA
    OPENMOLCAS    OPEN  MOLCASO     P  E  NMO
    OPENMOLCAS     OP               E  N  MOL
    OPENMOLCA   SO           PENM   O  L  CAS    OPEN    MO    LCAS
    OPENMOLCA   SOP           ENM   O  L  CAS   OP  EN  MOLC  AS   O
    OPENMOLCA   SOPE           NM      O  LCA   S      OP  EN MO
    OPENMOLC                AS         O  PEN   M      OL  CA  SOPE
    OPENMO        LCASOPE  NMOL        C  ASO   P      ENMOLC     AS
    OPE     NMO      LCA  SO     P     E   NM   OL  CA SO  PE N   MO
          OPENMOLCA            SOPE   NMO        LCAS  O    P  ENMO
     OPENMOLCASOPENMOLCASOPENMOLCASOPENMOLCA
        OPENMOLCASOPENMOLCASOPENMOLCASOPE
            OPENMOLCASOPENMOLCASOPENM
               OPENMOLCASOPENMOLCA        version: 18.09
                   OPENMOLCASO
                       OPE                tag: 50-g6d6e5e5-dirty

 OpenMolcas is free software; you can redistribute it and/or modify it
 under the terms of the GNU Lesser General Public License version 2.1.
 OpenMolcas is distributed in the hope that it will be useful, but it
 is provided "as is" and without any express or implied warranties.
 For more details see the full text of the license in the file
 LICENSE or in <http://www.gnu.org/licenses/>.

                 Copyright (C) The OpenMolcas Authors
           For the author list and the recommended citation,
                   consult the file CONTRIBUTORS.md

           *************************************************
           * pymolcas version py2.04                       *
           *   build 3b3f1139d1f9af0cd96dc01c0ce9d5c0      *
           *   (after the EMIL interpreter by V. Veryazov) *
           *************************************************

configuration info
------------------
C Compiler ID: Intel
C flags: -std=gnu99 -qopenmp
Fortran Compiler ID: Intel
Fortran flags: -fpp -i8 -r8 -heap-arrays -qopenmp
Definitions: _MOLCAS_;_I8_;_LINUX_;_MKL_;_FDE_
Parallel: OFF (GA=OFF)


   ----------------------------------------------------------------------------------------------------------
  |
  |           Project: NpO2_CH3SO2_CH3SO2-m1-triplet.casscf.MB
  |    Submitted from: /home/vallet/John-methylsulfonyl/NpO2_CH3SO2_CH3SO2-m1/optg-freq-pbe0/SO-XMS
  |      Scratch area: /state/partition2/vallet/498556.phlam-s-sakura/NpO2_CH3SO2_CH3SO2-m1-triplet.casscf.MB
  |   Save outputs to: /home/vallet/John-methylsulfonyl/NpO2_CH3SO2_CH3SO2-m1/optg-freq-pbe0/SO-XMS
  |            Molcas: /home/pcmt/OpenMolcas/OpenMolcas-20181005
  |
  | Scratch area is empty
  |
  |    MOLCAS_DRIVER = /home/pcmt/OpenMolcas/OpenMolcas-20181005/sbin/pymolcas
  |   MOLCAS_LICENSE = /home/pcmt/molcas/license
  |    MOLCAS_MOLDEN = ON
  |    MOLCAS_NPROCS = 1
  |    MOLCAS_SOURCE = /home/pcmt/OpenMolcas/OpenMolcas-20181005
  | MOLCAS_STRUCTURE = 0
  |
   ----------------------------------------------------------------------------------------------------------

++ ---------   Input file   ---------

&GATEWAY
   COORD=$HomeDir/NpO2_CH3SO2_CH3SO2-m1-triplet.pbe0.optg-zaxis.xyz
   BASIS=ANO-RCC-MB
   Group=Nosym
   ANGM=0.0 0.0 0.0
   RICD

>>> COPY $Project.RunFile $HomeDir

&SEWARD

&RASSCF
   Spin=3
   Symmetry=1
   Nactel=2 0 0
   Inactive=95
   Ras2=4
   CIRoots=6 6 1
   Lumorb

>>> COPY $Project.RasOrb $HomeDir/$Project.RasOrb_triplets

>>> COPY $Project.rasscf.molden $HomeDir/$Project.rasscf_triplets.molden

&RASSCF
   Spin=1
   Symmetry=1
   Nactel=2 0 0
   Inactive=95
   Ras2=4
   CIRoots=10 10 1
   Lumorb

>>> COPY $Project.RasOrb $HomeDir/$Project.RasOrb_singlets

>>> COPY $Project.rasscf.molden $HomeDir/$Project.rasscf_singlets.molden

-- ----------------------------------

--- Start Module: gateway at Thu Nov 15 10:28:12 2018 ---
 
()()()()()()()()()()()()()()()()()()()()()()()()()()()()()()()()()()()()()()()()()()()()()()()()()()

                                              &GATEWAY

                                   only a single process is used
                       available to each process: 16 GB of memory, 8 threads
()()()()()()()()()()()()()()()()()()()()()()()()()()()()()()()()()()()()()()()()()()()()()()()()()()
 
 
++    Symmetry information:
      ---------------------
 
                    Character Table for C1 
 
                             E  
                    a        1  x, y, xy, Rz, z, xz, Ry, yz, Rx, I
--
 
 
++    Basis set information:
      ----------------------
 
 
      Basis set label: C.ANO-RCC...2S1P.
 
      Electronic valence basis set:
      ------------------
      Associated Effective Charge   6.000000 au
      Associated Actual Charge      6.000000 au
      Nuclear Model: Point charge
 
      Shell  nPrim  nBasis  Cartesian Spherical Contaminant
         s      14       2        X                  
         p       9       1        X                  
 
 
      Basis set label: S.ANO-RCC...3S2P.
 
      Electronic valence basis set:
      ------------------
      Associated Effective Charge  16.000000 au
      Associated Actual Charge     16.000000 au
      Nuclear Model: Point charge
 
      Shell  nPrim  nBasis  Cartesian Spherical Contaminant
         s      17       3        X                  
         p      12       2        X                  
 
 
      Basis set label: O.ANO-RCC...2S1P.
 
      Electronic valence basis set:
      ------------------
      Associated Effective Charge   8.000000 au
      Associated Actual Charge      8.000000 au
      Nuclear Model: Point charge
 
      Shell  nPrim  nBasis  Cartesian Spherical Contaminant
         s      14       2        X                  
         p       9       1        X                  
 
 
      Basis set label: NP.ANO-RCC...7S6P4D2F.
 
      Electronic valence basis set:
      ------------------
      Associated Effective Charge  93.000000 au
      Associated Actual Charge     93.000000 au
      Nuclear Model: Point charge
 
      Shell  nPrim  nBasis  Cartesian Spherical Contaminant
         s      26       7        X                  
         p      23       6        X                  
         d      17       4                 X         
         f      13       2                 X         
 
 
      Basis set label: O.ANO-RCC...2S1P.
 
      Electronic valence basis set:
      ------------------
      Associated Effective Charge   8.000000 au
      Associated Actual Charge      8.000000 au
      Nuclear Model: Point charge
 
      Shell  nPrim  nBasis  Cartesian Spherical Contaminant
         s      14       2        X                  
         p       9       1        X                  
 
 
      Basis set label: S.ANO-RCC...3S2P.
 
      Electronic valence basis set:
      ------------------
      Associated Effective Charge  16.000000 au
      Associated Actual Charge     16.000000 au
      Nuclear Model: Point charge
 
      Shell  nPrim  nBasis  Cartesian Spherical Contaminant
         s      17       3        X                  
         p      12       2        X                  
 
 
      Basis set label: C.ANO-RCC...2S1P.
 
      Electronic valence basis set:
      ------------------
      Associated Effective Charge   6.000000 au
      Associated Actual Charge      6.000000 au
      Nuclear Model: Point charge
 
      Shell  nPrim  nBasis  Cartesian Spherical Contaminant
         s      14       2        X                  
         p       9       1        X                  
 
 
      Basis set label: O.ANO-RCC...2S1P.
 
      Electronic valence basis set:
      ------------------
      Associated Effective Charge   8.000000 au
      Associated Actual Charge      8.000000 au
      Nuclear Model: Point charge
 
      Shell  nPrim  nBasis  Cartesian Spherical Contaminant
         s      14       2        X                  
         p       9       1        X                  
 
 
      Basis set label: H.ANO-RCC...1S.
 
      Electronic valence basis set:
      ------------------
      Associated Effective Charge   1.000000 au
      Associated Actual Charge      1.000000 au
      Nuclear Model: Point charge
 
      Shell  nPrim  nBasis  Cartesian Spherical Contaminant
         s       8       1        X                  
--
 
 
++    Molecular structure info:
      -------------------------
 
                    ************************************************ 
                    **** Cartesian Coordinates / Bohr, Angstrom **** 
                    ************************************************ 
 
     Center  Label                x              y              z                     x              y              z
        1      C1               0.015685       6.374443      -3.917629              0.008300       3.373210      -2.073120
        2      S2               0.006709       5.872966      -0.523227              0.003550       3.107840      -0.276880
        3      O3               2.327727       4.173933      -0.179335              1.231780       2.208750      -0.094900
        4      O4              -2.320716       4.181246      -0.190314             -1.228070       2.212620      -0.100710
        5      NP5              0.000000       0.000000       0.000000              0.000000       0.000000       0.000000
        6      O6              -0.000019       0.000000      -3.363335             -0.000010       0.000000      -1.779800
        7      O7              -2.325346      -4.175709       0.179089             -1.230520      -2.209690       0.094770
        8      S8              -0.003099      -5.872985       0.523095             -0.001640      -3.107850       0.276810
        9      C9              -0.011924      -6.374556       3.917497             -0.006310      -3.373270       2.073050
       10      O10              0.000000       0.000000       3.363353              0.000000       0.000000       1.779810
       11      O11              2.323097      -4.179488       0.190409              1.229330      -2.211690       0.100760
       12      H12              1.680193      -7.439757       4.416441              0.889120      -3.936950       2.337080
       13      H13             -0.009675      -4.505731       4.786846             -0.005120      -2.384330       2.533090
       14      H14             -1.710882      -7.432312       4.408901             -0.905360      -3.933010       2.333090
       15      H15              1.715399       7.430913      -4.409203              0.907750       3.932270      -2.333250
       16      H16              0.011981       4.505580      -4.786922              0.006340       2.384250      -2.533130
       17      H17             -1.675658       7.440891      -4.416460             -0.886720       3.937550      -2.337090
 
                    ************************************************* 
                    **** InterNuclear Distances / Bohr, Angstrom **** 
                    ************************************************* 
 
     Atom centers         Bohr        Angstrom
   12 H12       9 C9      2.060773        1.090514
   14 H14       9 C9    
   15 H15       1 C1    
   17 H17       1 C1    
   13 H13       9 C9      2.061136        1.090706
   16 H16       1 C1    
    4 O4        2 S2      2.896490        1.532757
   11 O11       8 S8      2.896515        1.532770
    8 S8        7 O7      2.896881        1.532963
    3 O3        2 S2      2.896913        1.532980
    6 O6        5 NP5     3.363335        1.779800
   10 O10       5 NP5     3.363353        1.779810
   14 H14      12 H12     3.391079        1.794482
   17 H17      15 H15   
   13 H13      12 H12     3.406078        1.802419
   17 H17      16 H16   
   14 H14      13 H13     3.406145        1.802454
   16 H16      15 H15   
    2 S2        1 C1      3.431257        1.815743
    9 C9        8 S8    
   16 H16       2 S2      4.477596        2.369442
   13 H13       8 S8      4.477611        2.369450
   17 H17       2 S2      4.521726        2.392794
   12 H12       8 S8      4.521769        2.392817
   14 H14       8 S8      4.521892        2.392882
   15 H15       2 S2      4.521906        2.392889
    4 O4        3 O3      4.648458        2.459858
   11 O11       7 O7    
   16 H16       6 O6      4.725145        2.500439
   13 H13      10 O10     4.725255        2.500497
    5 NP5       3 O3      4.782487        2.530783
    7 O7        5 NP5     4.782871        2.530986
   11 O11       5 NP5     4.785515        2.532386
    5 NP5       4 O4      4.785892        2.532585
    4 O4        1 C1      4.915461        2.601150
   11 O11       9 C9    
    3 O3        1 C1      4.915541        2.601192
    9 C9        7 O7    
   13 H13      11 O11     5.164830        2.733110
   16 H16       4 O4    
   16 H16       3 O3      5.167449        2.734496
   13 H13       7 O7      5.167462        2.734503
   14 H14       7 O7      5.373484        2.843526
   15 H15       3 O3      5.373514        2.843541
   17 H17       4 O4      5.376030        2.844872
   12 H12      11 O11     5.376061        2.844889
--
 
 
            Nuclear Potential Energy           2507.36630943 au
 
--- Stop Module: gateway at Thu Nov 15 10:29:12 2018 /rc=_RC_ALL_IS_WELL_ ---
*** files: NpO2_CH3SO2_CH3SO2-m1-triplet.casscf.MB.RICDLib xmldump
    saved to directory /home/vallet/John-methylsulfonyl/NpO2_CH3SO2_CH3SO2-m1/optg-freq-pbe0/SO-XMS
--- Module gateway spent 59 seconds ---

>>> COPY NpO2_CH3SO2_CH3SO2-m1-triplet.casscf.MB.RunFile /home/vallet/John-methylsulfonyl/NpO2_CH3SO2_CH3SO2-m1/optg-freq-pbe0/SO-XMS

--- Start Module: seward at Thu Nov 15 10:29:12 2018 ---
 
()()()()()()()()()()()()()()()()()()()()()()()()()()()()()()()()()()()()()()()()()()()()()()()()()()

                                              &SEWARD

                                   only a single process is used
                       available to each process: 16 GB of memory, 8 threads
()()()()()()()()()()()()()()()()()()()()()()()()()()()()()()()()()()()()()()()()()()()()()()()()()()
 
               SEWARD will generate:
                  Multipole Moment integrals up to order  2
                  Kinetic Energy integrals
                  Nuclear Attraction integrals (point charge)
                  One-Electron Hamiltonian integrals
                  Velocity integrals
                  Relativistic Douglas-Kroll-Hess integrals:
                    - Parametrization         : EXP
                    - DKH order of Hamiltonian: 2
                    - DKH order of Properties : 0
                         - multipole moment operators
                         - electric potential operators
                         - contact operators
                  Orbital angular momentum around ( 0.0000  0.0000  0.0000 )
                  Atomic mean-field integrals
                  RI decomposed two-electron repulsion integrals stored Cholesky style
                   - acCD auxiliary basis
                   - CD Threshold:   0.10E-03
 
                   Integrals are discarded if absolute value <: 0.10E-13
                   Integral cutoff threshold is set to       <: 0.10E-15
 
            Nuclear Potential Energy           2507.36630943 au
 
 
      Basis set specifications :
      Symmetry species         a  
      Basis functions          123
 
 
  Input file to MOLDEN was generated!
 
--- Stop Module: seward at Thu Nov 15 10:29:34 2018 /rc=_RC_ALL_IS_WELL_ ---
*** files: NpO2_CH3SO2_CH3SO2-m1-triplet.casscf.MB.GssOrb NpO2_CH3SO2_CH3SO2-m1-triplet.casscf.MB.guessorb.h5 NpO2_CH3SO2_CH3SO2-m1-triplet.casscf.MB.guessorb.molden xmldump
    saved to directory /home/vallet/John-methylsulfonyl/NpO2_CH3SO2_CH3SO2-m1/optg-freq-pbe0/SO-XMS
--- Module seward spent 21 seconds ---

*** symbolic link created: INPORB -> NpO2_CH3SO2_CH3SO2-m1-triplet.casscf.MB.GssOrb
--- Start Module: rasscf at Thu Nov 15 10:29:34 2018 ---
 
()()()()()()()()()()()()()()()()()()()()()()()()()()()()()()()()()()()()()()()()()()()()()()()()()()

                                              &RASSCF

                                   only a single process is used
                       available to each process: 16 GB of memory, 8 threads
()()()()()()()()()()()()()()()()()()()()()()()()()()()()()()()()()()()()()()()()()()()()()()()()()()
 
 
      Header of the ONEINT file:
      --------------------------
      
      Integrals generated by seward 4.2.0  , Thu Nov 15 10:29:12 2018
 
 
      OrdInt status: non-squared
 
 
      Cartesian coordinates in Angstrom:
      -----------------------------------------------------
      No.  Label        X            Y            Z        
      -----------------------------------------------------
       1   C1         0.00830000   3.37321000  -2.07312000
       2   S2         0.00355000   3.10784000  -0.27688000
       3   O3         1.23178000   2.20875000  -0.09490000
       4   O4        -1.22807000   2.21262000  -0.10071000
       5   NP5        0.00000000   0.00000000   0.00000000
       6   O6        -0.00001000   0.00000000  -1.77980000
       7   O7        -1.23052000  -2.20969000   0.09477000
       8   S8        -0.00164000  -3.10785000   0.27681000
       9   C9        -0.00631000  -3.37327000   2.07305000
      10   O10        0.00000000   0.00000000   1.77981000
      11   O11        1.22933000  -2.21169000   0.10076000
      12   H12        0.88912000  -3.93695000   2.33708000
      13   H13       -0.00512000  -2.38433000   2.53309000
      14   H14       -0.90536000  -3.93301000   2.33309000
      15   H15        0.90775000   3.93227000  -2.33325000
      16   H16        0.00634000   2.38425000  -2.53313000
      17   H17       -0.88672000   3.93755000  -2.33709000
      -----------------------------------------------------
      Nuclear repulsion energy = 2507.36630943
 
++    Wave function specifications:
      -----------------------------
 
      Number of closed shell electrons         190
      Number of electrons in active shells       2
      Max number of holes in RAS1 space          0
      Max nr of electrons in RAS3 space          0
      Number of inactive orbitals               95
      Number of active orbitals                  4
      Number of secondary orbitals              24
      Spin quantum number                      1.0
      State symmetry                             1
--
 
++    Orbital specifications:
      -----------------------
 
      Symmetry species                           1
                                                 a
      Frozen orbitals                            0
      Inactive orbitals                         95
      Active orbitals                            4
      RAS1 orbitals                              0
      RAS2 orbitals                              4
      RAS3 orbitals                              0
      Secondary orbitals                        24
      Deleted orbitals                           0
      Number of basis functions                123
--
 
++    CI expansion specifications:
      ----------------------------
 
      Number of CSFs                             6
      Number of determinants                     6
      Number of root(s) required                 6
      Root chosen for geometry opt.              6
      CI roots used                              1     2     3     4     5     6
      weights                                0.167 0.167 0.167 0.167 0.167 0.167
      highest root included in the CI            6
      max. size of the explicit Hamiltonian      6
--
 
++    Optimization specifications:
      ----------------------------
 
      RASSCF algorithm: LK RI/DF
      Maximum number of macro iterations       200
      Maximum number of SX iterations          100
      Threshold for RASSCF energy            0.100E-07
      Threshold for max MO rotation          0.100E+00
      Threshold for max BLB element          0.100E-03
      Level shift parameter                  0.500E+00
      Make Quasi-Newton update
--
 
      The MO-coefficients are taken from the file:
      INPORB                                                                                                                          
      Title:Guess orbitals                                                                 
 
      Total molecular charge   -1.00
 
      ************************************************************************************************************************
      *                                                                                                                      *
      *                                            Wave function control section                                             *
      *                                                                                                                      *
      ************************************************************************************************************************
 
 
                                         RASSCF iterations: Energy and convergence statistics
                                         ----------------------------------------------------
 
      Iter CI   SX   CI       RASSCF       Energy    max ROT     max BLB   max BLB  Level Ln srch  Step   QN   Walltime
          iter iter root      energy       change     param      element    value   shift minimum  type update hh:mm:ss
 Nr of preliminary CI iterations:   1
      Total energies have been shifted. Add               -30000.00 au
        1   1   11    0   -57.61514317    0.00E+00  -0.28E+00*  93 102 1 -0.58E+00*  1.68   0.00    SX    NO    0:00:04
        2   1   10    0   -59.44909425   -0.18E+01*  0.29E+00*  95  99 1  0.68E+00*  1.20   0.00    SX    NO    0:00:01
        3   1   10    0   -60.56833648   -0.11E+01*  0.25E+00*  95  99 1  0.58E+00*  0.85   0.00    SX    NO    0:00:01
        4   1    9    0   -61.13199216   -0.56E+00*  0.18E+00*  95  99 1  0.37E+00*  0.67   0.00    SX    NO    0:00:01
        5   1    9    0   -61.36121358   -0.23E+00*  0.12E+00*  95  99 1  0.21E+00*  0.62   2.02    LS   YES    0:00:01
        6   1    8    0   -61.43485203   -0.74E-01*  0.74E-01   95  99 1  0.84E-01*  0.61   1.54    QN   YES    0:00:01
        7   1    8    0   -61.46703946   -0.32E-01*  0.52E-01   80  98 1  0.52E-01*  0.60   1.86    LS   YES    0:00:01
        8   1    8    0   -61.47552400   -0.85E-02* -0.45E-01   95  99 1 -0.47E-01*  0.60   1.22    QN   YES    0:00:01
        9   1    8    0   -61.48854602   -0.13E-01* -0.14E+00*  95  99 1 -0.43E-01*  0.59   2.50    QN   YES    0:00:01
       10   1    8    0   -61.51929206   -0.31E-01* -0.12E+00*  90  98 1 -0.39E-01*  0.56   1.73    QN   YES    0:00:01
       11   1    8    0   -61.53593904   -0.17E-01*  0.87E-01   90  98 1 -0.29E-01*  0.52   1.55    QN   YES    0:00:01
       12   1    8    0   -61.54740176   -0.11E-01*  0.95E-01   93  99 1 -0.24E-01*  0.50   2.19    QN   YES    0:00:01
       13   1    8    0   -61.55922777   -0.12E-01*  0.64E-01   93  99 1 -0.22E-01*  0.49   1.86    LS   YES    0:00:01
       14   1    8    0   -61.56240225   -0.32E-02* -0.22E-01   95  99 1  0.26E-01*  0.48   1.27    QN   YES    0:00:01
       15   1    8    0   -61.56661670   -0.42E-02* -0.24E-01   80  98 1 -0.15E-01*  0.48   2.22    LS   YES    0:00:01
       16   1    8    0   -61.56841803   -0.18E-02* -0.16E-01   90  98 1 -0.11E-01*  0.48   1.13    QN   YES    0:00:01
       17   1    7    0   -61.56965330   -0.12E-02*  0.52E-01   90  98 1 -0.11E-01*  0.48   2.50    QN   YES    0:00:01
       18   1    8    0   -61.57374193   -0.41E-02*  0.22E+00*  94  98 1  0.34E-01*  0.48   2.50    QN   YES    0:00:01
       19   1    8    0   -61.58703474   -0.13E-01*  0.13E+00*  94  98 1  0.11E+00*  0.45   1.12    QN   YES    0:00:01
       20   1    9    0   -61.59308337   -0.60E-02* -0.87E-01   94  98 1  0.13E+00*  0.43   1.14    QN   YES    0:00:01
       21   1    9    0   -61.61011105   -0.17E-01* -0.26E+00*  94  98 1  0.16E+00*  0.43   2.50    QN   YES    0:00:01
       22   1    9    0   -61.66467444   -0.55E-01* -0.19E+00*  94  98 1  0.19E+00*  0.42   1.60    QN   YES    0:00:01
       23   1    9    0   -61.72703373   -0.62E-01* -0.69E-01   94  98 1  0.22E+00*  0.43   1.56    QN   YES    0:00:01
       24   1    9    0   -61.79077308   -0.64E-01* -0.21E+00*  94  98 1  0.24E+00*  0.45   2.16    QN   YES    0:00:01
       25   1    9    0   -61.87193510   -0.81E-01*  0.11E+00*  94  98 1  0.18E+00*  0.45   1.69    QN   YES    0:00:01
       26   1    9    0   -61.96308850   -0.91E-01*  0.18E+00*  94  98 1  0.13E+00*  0.45   1.54    QN   YES    0:00:01
       27   1    9    0   -62.00118544   -0.38E-01*  0.89E-01   93 102 1 -0.11E+00*  0.44   0.99    QN   YES    0:00:01
       28   1    8    0   -62.03711974   -0.36E-01* -0.34E-01   93 101 1  0.27E-01*  0.41   1.14    QN   YES    0:00:01
       29   1    8    0   -62.04729887   -0.10E-01* -0.41E-01   93 101 1  0.22E-01*  0.40   2.50    LS   YES    0:00:01
       30   1    8    0   -62.05302536   -0.57E-02* -0.71E-01   93 101 1  0.16E-01*  0.40   1.30    QN   YES    0:00:01
       31   1    8    0   -62.05769548   -0.47E-02* -0.12E+00*  99 101 1  0.13E-01*  0.40   2.32    QN   YES    0:00:01
       32   1    8    0   -62.06261038   -0.49E-02* -0.15E+00*  99 101 1  0.14E-01*  0.40   1.80    QN   YES    0:00:01
       33   1    8    0   -62.06624023   -0.36E-02* -0.18E+00*  99 101 1  0.13E-01*  0.40   1.95    QN   YES    0:00:01
       34   1    8    0   -62.06993384   -0.37E-02* -0.18E+00*  83 100 1  0.14E-01*  0.40   1.93    QN   YES    0:00:01
       35   1    8    0   -62.07318984   -0.33E-02*  0.13E+00*  93 101 1 -0.18E-01*  0.40   1.79    QN   YES    0:00:01
       36   1    8    0   -62.07573368   -0.25E-02* -0.60E-01   93 101 1 -0.15E-01*  0.40   1.73    QN   YES    0:00:01
       37   1    7    0   -62.07713441   -0.14E-02* -0.27E-01   93 101 1 -0.87E-02*  0.40   1.48    LS   YES    0:00:01
       38   1    7    0   -62.07729870   -0.16E-03* -0.23E-01   93 101 1 -0.58E-02*  0.40   1.07    QN   YES    0:00:01
       39   1    7    0   -62.07752320   -0.22E-03* -0.21E-01   93 101 1 -0.40E-02*  0.40   1.97    LS   YES    0:00:01
       40   1    7    0   -62.07759367   -0.70E-04*  0.13E-01   93 101 1 -0.24E-02*  0.40   1.04    QN   YES    0:00:01
       41   1    7    0   -62.07765270   -0.59E-04*  0.13E-01   93 101 1 -0.21E-02*  0.40   1.64    QN   YES    0:00:01
       42   1    6    0   -62.07769035   -0.38E-04*  0.34E-02   93 101 1 -0.13E-02*  0.40   1.37    QN   YES    0:00:01
       43   1    6    0   -62.07770288   -0.13E-04*  0.27E-02   93 101 1 -0.70E-03*  0.40   1.82    LS   YES    0:00:01
       44   1    6    0   -62.07770518   -0.23E-05*  0.27E-02   46 100 1 -0.63E-03*  0.40   0.82    QN   YES    0:00:01
       45   1    6    0   -62.07770926   -0.41E-05*  0.40E-02   93 102 1 -0.41E-03*  0.40   2.50    LS   YES    0:00:01
       46   1    6    0   -62.07771046   -0.12E-05*  0.19E-02   45  99 1 -0.38E-03*  0.40   0.70    QN   YES    0:00:01
       47   1    6    0   -62.07771177   -0.13E-05*  0.17E-02   93 102 1 -0.23E-03*  0.40   1.89    LS   YES    0:00:01
       48   1    5    0   -62.07771211   -0.35E-06*  0.12E-02   93 102 1 -0.26E-03*  0.40   0.93    QN   YES    0:00:01
       49   1    5    0   -62.07771271   -0.60E-06*  0.17E-02   93 102 1 -0.18E-03*  0.40   2.50    LS   YES    0:00:01
       50   1    5    0   -62.07771305   -0.34E-06*  0.88E-03   67  99 1 -0.10E-03*  0.40   1.19    QN   YES    0:00:01
       51   1    5    0   -62.07771330   -0.24E-06*  0.13E-02   93 101 1  0.10E-03   0.40   2.50    LS   YES    0:00:01
       52   1    5    0   -62.07771348   -0.18E-06* -0.48E-03   93 101 1  0.12E-03*  0.40   1.30    QN   YES    0:00:01
       53   1    5    0   -62.07771358   -0.10E-06*  0.50E-03   93 101 1  0.99E-04   0.40   1.67    QN   YES    0:00:01
       54   1    5    0   -62.07771364   -0.58E-07*  0.37E-03   93 101 1  0.66E-04   0.40   1.55    QN   YES    0:00:01
       55   1    5    0   -62.07771363    0.72E-08   0.21E-03   93 101 1  0.36E-04   0.40   0.21    LS   YES    0:00:01
      Convergence after 55 iterations
       56   1    5    0   -62.07771359    0.37E-07*  0.21E-03   93 101 1  0.52E-04   0.40   0.21    LS   YES    0:00:01
 
      ************************************************************************************************************************
                                                      Wave function printout:
                       occupation of active orbitals, and spin coupling of open shells (u,d: Spin up or down)
      ************************************************************************************************************************
 
      Note: transformation to natural orbitals
      has been made, which may change the order of the CSFs.
 
      printout of CI-coefficients larger than  0.05 for root  1
      energy=  -30062.105709
      conf/sym  1111     Coeff  Weight
             1  uu00   0.22287 0.04967
             3  u00u   0.75426 0.56891
             4  0uu0   0.55097 0.30357
             6  00uu   0.27212 0.07405
 
      printout of CI-coefficients larger than  0.05 for root  2
      energy=  -30062.105261
      conf/sym  1111     Coeff  Weight
             1  uu00   0.57431 0.32983
             3  u00u  -0.26915 0.07244
             4  0uu0  -0.22873 0.05232
             6  00uu   0.73836 0.54517
 
      printout of CI-coefficients larger than  0.05 for root  3
      energy=  -30062.097606
      conf/sym  1111     Coeff  Weight
             2  u0u0   0.89259 0.79672
             4  0uu0   0.12428 0.01545
             5  0u0u   0.43083 0.18562
 
      printout of CI-coefficients larger than  0.05 for root  4
      energy=  -30062.074909
      conf/sym  1111     Coeff  Weight
             1  uu00   0.76114 0.57934
             3  u00u   0.13657 0.01865
             4  0uu0  -0.19587 0.03837
             6  00uu  -0.60293 0.36353
 
      printout of CI-coefficients larger than  0.05 for root  5
      energy=  -30062.068194
      conf/sym  1111     Coeff  Weight
             1  uu00   0.19993 0.03997
             2  u0u0  -0.08539 0.00729
             3  u00u  -0.58224 0.33900
             4  0uu0   0.76623 0.58711
             5  0u0u  -0.09773 0.00955
             6  00uu  -0.13069 0.01708
 
      printout of CI-coefficients larger than  0.05 for root  6
      energy=  -30062.014601
      conf/sym  1111     Coeff  Weight
             2  u0u0  -0.44062 0.19414
             4  0uu0   0.05655 0.00320
             5  0u0u   0.89584 0.80252
 
      Natural orbitals and occupation numbers for root  1
      sym 1:   0.658102   0.341898   0.341898   0.658102
 
      Natural orbitals and occupation numbers for root  2
      sym 1:   0.381359   0.381359   0.618641   0.618641
 
      Natural orbitals and occupation numbers for root  3
      sym 1:   0.815417   0.184583   0.815417   0.184583
 
      Natural orbitals and occupation numbers for root  4
      sym 1:   0.618633   0.618633   0.381367   0.381367
 
      Natural orbitals and occupation numbers for root  5
      sym 1:   0.362075   0.637925   0.637925   0.362075
 
      Natural orbitals and occupation numbers for root  6
      sym 1:   0.192439   0.807561   0.192439   0.807561
 
      ************************************************************************************************************************
      *                                                                                                                      *
      *                                                    Final results                                                     *
      *                                                                                                                      *
      ************************************************************************************************************************
 
 
++    Wave function specifications:
      -----------------------------
 
      Number of closed shell electrons         190
      Number of electrons in active shells       2
      Max number of holes in RAS1 space          0
      Max nr of electrons in RAS3 space          0
      Number of inactive orbitals               95
      Number of active orbitals                  4
      Number of secondary orbitals              24
      Spin quantum number                      1.0
      State symmetry                             1
--
 
++    Orbital specifications:
      -----------------------
 
      Symmetry species                           1
                                                 a
      Frozen orbitals                            0
      Inactive orbitals                         95
      Active orbitals                            4
      RAS1 orbitals                              0
      RAS2 orbitals                              4
      RAS3 orbitals                              0
      Secondary orbitals                        24
      Deleted orbitals                           0
      Number of basis functions                123
--
 
++    CI expansion specifications:
      ----------------------------
 
      Number of CSFs                             6
      Number of determinants                     6
      Number of root(s) required                 6
      CI roots used                              1     2     3     4     5     6
      weights                                0.167 0.167 0.167 0.167 0.167 0.167
      highest root included in the CI            6
      Root passed to geometry opt.               6
--
 
++    Final optimization conditions:
      ------------------------------
 
      Average CI energy                          -30062.07771360
      RASSCF energy for state  6                 -30062.01460147
      Super-CI energy                                -0.00000001
      RASSCF energy change                            0.00000004
      Max change in MO coefficients              -0.197E-03
      Max non-diagonal density matrix element     0.207E-03
      Maximum BLB matrix element                  0.524E-04
      (orbital pair  93, 101 in symmetry   1)
      Norm of electronic gradient            0.595E-01
--
 
 
      Final state energy(ies):
      ------------------------
 
::    RASSCF root number  1 Total energy: -30062.10570913
::    RASSCF root number  2 Total energy: -30062.10526142
::    RASSCF root number  3 Total energy: -30062.09760628
::    RASSCF root number  4 Total energy: -30062.07490898
::    RASSCF root number  5 Total energy: -30062.06819432
::    RASSCF root number  6 Total energy: -30062.01460147
 
++    Molecular orbitals:
      -------------------
 
      Pseudonatural active orbitals and approximate occupation numbers
 
 
 
 
      Molecular orbitals for symmetry species 1: a  
 
 
      Orbital                1         2         3         4         5         6         7         8         9        10
      Energy        -4373.2125 -828.8907 -693.2368 -693.2362 -693.2360 -213.3119 -175.0396 -175.0391 -175.0354 -139.3982
      Occ. No.          2.0000    2.0000    2.0000    2.0000    2.0000    2.0000    2.0000    2.0000    2.0000    2.0000
 
    1 C1     1s        -0.0000   -0.0000    0.0000   -0.0000    0.0000   -0.0000   -0.0000    0.0000    0.0000    0.0000
    2 C1     2s        -0.0000   -0.0000    0.0000    0.0000    0.0000   -0.0000    0.0000    0.0000    0.0000    0.0000
    3 C1     2px        0.0000    0.0000   -0.0000    0.0000    0.0000    0.0000    0.0000    0.0000   -0.0000   -0.0000
    4 C1     2py        0.0000    0.0000    0.0000   -0.0000   -0.0000    0.0000   -0.0000   -0.0000    0.0000   -0.0000
    5 C1     2pz       -0.0000   -0.0000   -0.0000    0.0000    0.0000   -0.0000    0.0000    0.0000   -0.0000   -0.0000
    6 S2     1s        -0.0000   -0.0000   -0.0000    0.0000   -0.0000   -0.0000    0.0000   -0.0000   -0.0000   -0.0000
    7 S2     2s        -0.0000   -0.0000    0.0000    0.0000   -0.0000   -0.0000    0.0000   -0.0000   -0.0000   -0.0000
    8 S2     3s        -0.0000   -0.0000    0.0000    0.0000   -0.0000   -0.0000    0.0000   -0.0000    0.0000   -0.0000
    9 S2     2px       -0.0000    0.0000   -0.0000   -0.0000    0.0000    0.0000   -0.0000    0.0000   -0.0000    0.0000
   10 S2     3px       -0.0000   -0.0000   -0.0000   -0.0000   -0.0000   -0.0000   -0.0000   -0.0000   -0.0000    0.0000
   11 S2     2py       -0.0000   -0.0000    0.0000   -0.0000    0.0000   -0.0000   -0.0000    0.0000    0.0000    0.0000
   12 S2     3py       -0.0000   -0.0000   -0.0000   -0.0000    0.0000   -0.0000   -0.0000    0.0000    0.0000    0.0000
   13 S2     2pz       -0.0000   -0.0000    0.0000    0.0000   -0.0000   -0.0000    0.0000   -0.0000    0.0000   -0.0000
   14 S2     3pz       -0.0000   -0.0000    0.0000    0.0000   -0.0000   -0.0000    0.0000   -0.0000    0.0000   -0.0000
   15 O3     1s         0.0000    0.0000    0.0000    0.0000    0.0000    0.0000    0.0000    0.0000   -0.0000   -0.0000
   16 O3     2s         0.0000    0.0000    0.0000    0.0000    0.0000    0.0000    0.0000    0.0000    0.0000   -0.0000
   17 O3     2px       -0.0000   -0.0000   -0.0000    0.0000    0.0000   -0.0000    0.0000    0.0000   -0.0000    0.0000
   18 O3     2py       -0.0000   -0.0000   -0.0000    0.0000    0.0000   -0.0000    0.0000    0.0000   -0.0000   -0.0000
   19 O3     2pz        0.0000    0.0000    0.0000    0.0000   -0.0000    0.0000    0.0000   -0.0000    0.0000   -0.0000
   20 O4     1s         0.0000    0.0000   -0.0000    0.0000   -0.0000    0.0000    0.0000   -0.0000   -0.0000   -0.0000
   21 O4     2s         0.0000    0.0000    0.0000    0.0000   -0.0000    0.0000    0.0000   -0.0000    0.0000   -0.0000
   22 O4     2px        0.0000    0.0000    0.0000   -0.0000    0.0000    0.0000   -0.0000    0.0000    0.0000   -0.0000
   23 O4     2py       -0.0000   -0.0000   -0.0000    0.0000   -0.0000   -0.0000    0.0000   -0.0000   -0.0000   -0.0000
   24 O4     2pz        0.0000    0.0000    0.0000    0.0000    0.0000    0.0000    0.0000    0.0000    0.0000   -0.0000
   25 NP5    1s         1.0000   -0.0000   -0.0000    0.0000    0.0000    0.0000   -0.0000   -0.0000    0.0000   -0.0000
   26 NP5    2s         0.0000    1.0000   -0.0000    0.0000   -0.0000   -0.0000    0.0000    0.0000   -0.0000    0.0000
   27 NP5    3s        -0.0000    0.0000    0.0000   -0.0000   -0.0000    1.0000    0.0000   -0.0000   -0.0000    0.0000
   28 NP5    4s         0.0000   -0.0000   -0.0000    0.0000    0.0000   -0.0000   -0.0000   -0.0000    0.0000   -0.0000
   29 NP5    5s        -0.0000    0.0000    0.0000   -0.0000   -0.0000    0.0000    0.0000    0.0000   -0.0000    0.0000
   30 NP5    6s         0.0000   -0.0000    0.0000    0.0000    0.0000    0.0000   -0.0000   -0.0000    0.0000   -0.0000
   31 NP5    7s        -0.0000   -0.0000    0.0000    0.0000    0.0000   -0.0000   -0.0000    0.0000    0.0000    0.0000
   32 NP5    2px       -0.0000    0.0000    0.0001    0.0028    1.0000    0.0000   -0.0000   -0.0000    0.0000   -0.0000
   33 NP5    3px        0.0000   -0.0000    0.0000    0.0000    0.0000    0.0000    0.0019    1.0000   -0.0000    0.0000
   34 NP5    4px       -0.0000    0.0000   -0.0000   -0.0000   -0.0000   -0.0000   -0.0000   -0.0000   -0.0000    0.0000
   35 NP5    5px        0.0000   -0.0000    0.0000    0.0000    0.0000    0.0000    0.0000    0.0000    0.0000   -0.0000
   36 NP5    6px       -0.0000   -0.0000    0.0000   -0.0000   -0.0000   -0.0000   -0.0000   -0.0000   -0.0000    0.0000
   37 NP5    7px       -0.0000   -0.0000    0.0000    0.0000    0.0000   -0.0000    0.0000    0.0000    0.0000   -0.0000
   38 NP5    2py       -0.0000   -0.0000    0.0339    0.9994   -0.0028    0.0000   -0.0000    0.0000   -0.0000   -0.0000
   39 NP5    3py        0.0000   -0.0000    0.0000    0.0000   -0.0000   -0.0000    0.9999   -0.0019   -0.0137   -0.0000
   40 NP5    4py       -0.0000    0.0000   -0.0000   -0.0000    0.0000   -0.0000   -0.0000    0.0000    0.0000    0.0000
   41 NP5    5py        0.0000   -0.0000    0.0000    0.0000   -0.0000    0.0000    0.0000   -0.0000   -0.0000   -0.0000
   42 NP5    6py       -0.0000    0.0000   -0.0000   -0.0000    0.0000   -0.0000   -0.0000    0.0000    0.0000    0.0000
   43 NP5    7py       -0.0000    0.0000   -0.0000   -0.0000    0.0000   -0.0000    0.0000    0.0000   -0.0000    0.0000
   44 NP5    2pz        0.0000    0.0000    0.9994   -0.0339   -0.0000   -0.0000   -0.0000    0.0000   -0.0000    0.0000
   45 NP5    3pz       -0.0000    0.0000    0.0000   -0.0000   -0.0000    0.0000    0.0137    0.0000    0.9999   -0.0000
   46 NP5    4pz        0.0000   -0.0000   -0.0000    0.0000    0.0000    0.0000   -0.0000   -0.0000   -0.0000    0.0000
   47 NP5    5pz       -0.0000    0.0000    0.0000   -0.0000   -0.0000   -0.0000   -0.0000    0.0000    0.0000   -0.0000
   48 NP5    6pz       -0.0000   -0.0000    0.0000    0.0000    0.0000   -0.0000    0.0000   -0.0000    0.0000    0.0000
   49 NP5    7pz        0.0000    0.0000    0.0000    0.0000   -0.0000   -0.0000    0.0000    0.0000    0.0000   -0.0000
   50 NP5    3d2-       0.0000    0.0000   -0.0000    0.0000   -0.0000    0.0000   -0.0000   -0.0000    0.0000    0.0001
   51 NP5    4d2-       0.0000   -0.0000    0.0000   -0.0000    0.0000    0.0000    0.0000   -0.0000   -0.0000   -0.0000
   52 NP5    5d2-      -0.0000    0.0000   -0.0000    0.0000   -0.0000   -0.0000   -0.0000    0.0000    0.0000    0.0000
   53 NP5    6d2-      -0.0000   -0.0000   -0.0000    0.0000   -0.0000   -0.0000    0.0000    0.0000   -0.0000   -0.0000
   54 NP5    3d1-       0.0000    0.0000   -0.0000    0.0000    0.0000    0.0000    0.0000   -0.0000   -0.0000   -0.0232
   55 NP5    4d1-      -0.0000   -0.0000    0.0000   -0.0000    0.0000    0.0000    0.0000   -0.0000   -0.0000    0.0000
   56 NP5    5d1-       0.0000    0.0000   -0.0000    0.0000   -0.0000   -0.0000   -0.0000    0.0000    0.0000   -0.0000
   57 NP5    6d1-       0.0000   -0.0000   -0.0000   -0.0000   -0.0000    0.0000    0.0000    0.0000    0.0000    0.0000
   58 NP5    3d0        0.0000   -0.0000    0.0000    0.0000   -0.0000   -0.0000    0.0000    0.0000    0.0000    0.0005
   59 NP5    4d0       -0.0000   -0.0000   -0.0000   -0.0000    0.0000   -0.0000    0.0000   -0.0000    0.0000   -0.0000
   60 NP5    5d0       -0.0000    0.0000    0.0000    0.0000   -0.0000   -0.0000   -0.0000    0.0000   -0.0000    0.0000
   61 NP5    6d0        0.0000    0.0000    0.0000    0.0000   -0.0000    0.0000   -0.0000   -0.0000    0.0000   -0.0000
   62 NP5    3d1+      -0.0000    0.0000   -0.0000    0.0000    0.0000    0.0000    0.0000    0.0000   -0.0000    0.0001
   63 NP5    4d1+       0.0000   -0.0000   -0.0000    0.0000   -0.0000   -0.0000   -0.0000    0.0000   -0.0000   -0.0000
   64 NP5    5d1+      -0.0000   -0.0000    0.0000   -0.0000    0.0000    0.0000    0.0000   -0.0000    0.0000    0.0000
   65 NP5    6d1+      -0.0000   -0.0000   -0.0000    0.0000   -0.0000   -0.0000    0.0000    0.0000    0.0000   -0.0000
   66 NP5    3d2+       0.0000   -0.0000   -0.0000    0.0000    0.0000   -0.0000    0.0000   -0.0000    0.0000    0.9997
   67 NP5    4d2+      -0.0000    0.0000   -0.0000   -0.0000   -0.0000   -0.0000    0.0000   -0.0000    0.0000   -0.0000
   68 NP5    5d2+       0.0000   -0.0000    0.0000    0.0000    0.0000    0.0000   -0.0000   -0.0000   -0.0000    0.0000
   69 NP5    6d2+       0.0000    0.0000   -0.0000    0.0000   -0.0000    0.0000   -0.0000    0.0000   -0.0000    0.0000
   70 NP5    4f3-       0.0000    0.0000   -0.0000   -0.0000    0.0000    0.0000   -0.0000    0.0000    0.0000   -0.0000
   71 NP5    5f3-      -0.0000   -0.0000    0.0000    0.0000   -0.0000   -0.0000    0.0000   -0.0000   -0.0000   -0.0000
   72 NP5    4f2-       0.0000   -0.0000    0.0000    0.0000    0.0000   -0.0000   -0.0000    0.0000    0.0000    0.0000
   73 NP5    5f2-       0.0000    0.0000   -0.0000    0.0000   -0.0000    0.0000    0.0000   -0.0000   -0.0000   -0.0000
   74 NP5    4f1-      -0.0000    0.0000    0.0000   -0.0000    0.0000    0.0000   -0.0000    0.0000    0.0000   -0.0000
   75 NP5    5f1-       0.0000   -0.0000    0.0000    0.0000   -0.0000    0.0000    0.0000   -0.0000   -0.0000   -0.0000
   76 NP5    4f0       -0.0000   -0.0000   -0.0000   -0.0000    0.0000   -0.0000   -0.0000   -0.0000   -0.0000    0.0000
   77 NP5    5f0       -0.0000    0.0000    0.0000    0.0000   -0.0000   -0.0000    0.0000    0.0000    0.0000   -0.0000
   78 NP5    4f1+       0.0000   -0.0000   -0.0000   -0.0000   -0.0000   -0.0000   -0.0000   -0.0000    0.0000   -0.0000
   79 NP5    5f1+       0.0000    0.0000   -0.0000    0.0000    0.0000    0.0000    0.0000    0.0000   -0.0000    0.0000
   80 NP5    4f2+      -0.0000    0.0000   -0.0000   -0.0000    0.0000    0.0000   -0.0000    0.0000   -0.0000    0.0000
   81 NP5    5f2+      -0.0000   -0.0000    0.0000   -0.0000   -0.0000   -0.0000    0.0000   -0.0000    0.0000   -0.0000
   82 NP5    4f3+       0.0000   -0.0000   -0.0000   -0.0000    0.0000   -0.0000   -0.0000   -0.0000    0.0000   -0.0000
   83 NP5    5f3+       0.0000    0.0000   -0.0000   -0.0000   -0.0000    0.0000    0.0000    0.0000   -0.0000    0.0000
   84 O6     1s         0.0000    0.0000    0.0000   -0.0000   -0.0000    0.0000    0.0000    0.0000    0.0000    0.0000
   85 O6     2s        -0.0000    0.0000    0.0000    0.0000   -0.0000   -0.0000    0.0000    0.0000    0.0000    0.0000
   86 O6     2px       -0.0000   -0.0000   -0.0000   -0.0000   -0.0000   -0.0000   -0.0000   -0.0000    0.0000    0.0000
   87 O6     2py        0.0000    0.0000    0.0000   -0.0000    0.0000    0.0000   -0.0000    0.0000    0.0000   -0.0000
   88 O6     2pz       -0.0000   -0.0000    0.0000   -0.0000    0.0000   -0.0000    0.0000   -0.0000    0.0000    0.0000
   89 O7     1s         0.0000    0.0000   -0.0000   -0.0000   -0.0000    0.0000   -0.0000   -0.0000    0.0000   -0.0000
   90 O7     2s         0.0000    0.0000   -0.0000   -0.0000   -0.0000    0.0000   -0.0000   -0.0000   -0.0000   -0.0000
   91 O7     2px        0.0000    0.0000   -0.0000    0.0000    0.0000    0.0000    0.0000    0.0000   -0.0000   -0.0000
   92 O7     2py        0.0000    0.0000   -0.0000    0.0000    0.0000    0.0000    0.0000    0.0000   -0.0000    0.0000
   93 O7     2pz       -0.0000   -0.0000    0.0000    0.0000   -0.0000   -0.0000    0.0000   -0.0000    0.0000    0.0000
   94 S8     1s        -0.0000   -0.0000    0.0000   -0.0000    0.0000   -0.0000   -0.0000    0.0000    0.0000   -0.0000
   95 S8     2s        -0.0000   -0.0000   -0.0000   -0.0000    0.0000   -0.0000   -0.0000    0.0000    0.0000   -0.0000
   96 S8     3s        -0.0000   -0.0000   -0.0000   -0.0000    0.0000   -0.0000   -0.0000    0.0000   -0.0000   -0.0000
   97 S8     2px       -0.0000   -0.0000   -0.0000   -0.0000    0.0000   -0.0000   -0.0000    0.0000   -0.0000   -0.0000
   98 S8     3px        0.0000   -0.0000   -0.0000   -0.0000   -0.0000    0.0000   -0.0000   -0.0000   -0.0000   -0.0000
   99 S8     2py        0.0000    0.0000    0.0000   -0.0000    0.0000    0.0000   -0.0000    0.0000    0.0000   -0.0000
  100 S8     3py        0.0000    0.0000   -0.0000   -0.0000    0.0000    0.0000   -0.0000    0.0000    0.0000   -0.0000
  101 S8     2pz        0.0000    0.0000    0.0000    0.0000   -0.0000    0.0000    0.0000   -0.0000    0.0000    0.0000
  102 S8     3pz        0.0000    0.0000    0.0000    0.0000   -0.0000    0.0000    0.0000   -0.0000    0.0000    0.0000
  103 C9     1s        -0.0000   -0.0000   -0.0000    0.0000   -0.0000   -0.0000    0.0000   -0.0000   -0.0000    0.0000
  104 C9     2s        -0.0000   -0.0000   -0.0000   -0.0000   -0.0000   -0.0000   -0.0000   -0.0000   -0.0000    0.0000
  105 C9     2px       -0.0000   -0.0000   -0.0000    0.0000    0.0000   -0.0000    0.0000    0.0000   -0.0000    0.0000
  106 C9     2py       -0.0000   -0.0000    0.0000   -0.0000   -0.0000   -0.0000   -0.0000   -0.0000    0.0000    0.0000
  107 C9     2pz        0.0000    0.0000   -0.0000    0.0000    0.0000    0.0000    0.0000    0.0000   -0.0000    0.0000
  108 O10    1s         0.0000    0.0000   -0.0000    0.0000    0.0000    0.0000   -0.0000    0.0000   -0.0000    0.0000
  109 O10    2s        -0.0000    0.0000   -0.0000   -0.0000    0.0000   -0.0000   -0.0000    0.0000   -0.0000    0.0000
  110 O10    2px        0.0000    0.0000   -0.0000   -0.0000   -0.0000    0.0000   -0.0000   -0.0000    0.0000    0.0000
  111 O10    2py       -0.0000   -0.0000    0.0000   -0.0000    0.0000   -0.0000   -0.0000    0.0000    0.0000    0.0000
  112 O10    2pz        0.0000    0.0000    0.0000   -0.0000   -0.0000    0.0000    0.0000   -0.0000    0.0000   -0.0000
  113 O11    1s         0.0000    0.0000    0.0000   -0.0000    0.0000    0.0000   -0.0000    0.0000    0.0000   -0.0000
  114 O11    2s         0.0000    0.0000   -0.0000   -0.0000    0.0000    0.0000   -0.0000    0.0000   -0.0000   -0.0000
  115 O11    2px       -0.0000   -0.0000    0.0000   -0.0000    0.0000   -0.0000   -0.0000    0.0000    0.0000    0.0000
  116 O11    2py        0.0000    0.0000   -0.0000    0.0000   -0.0000    0.0000    0.0000   -0.0000   -0.0000    0.0000
  117 O11    2pz       -0.0000   -0.0000    0.0000    0.0000    0.0000   -0.0000    0.0000    0.0000    0.0000    0.0000
  118 H12    1s         0.0000    0.0000   -0.0000    0.0000   -0.0000    0.0000    0.0000   -0.0000   -0.0000    0.0000
  119 H13    1s        -0.0000   -0.0000    0.0000   -0.0000    0.0000   -0.0000   -0.0000    0.0000    0.0000   -0.0000
  120 H14    1s         0.0000    0.0000   -0.0000    0.0000    0.0000    0.0000    0.0000    0.0000   -0.0000    0.0000
  121 H15    1s         0.0000    0.0000    0.0000   -0.0000   -0.0000    0.0000   -0.0000   -0.0000    0.0000    0.0000
  122 H16    1s        -0.0000   -0.0000   -0.0000    0.0000   -0.0000   -0.0000    0.0000   -0.0000   -0.0000   -0.0000
  123 H17    1s         0.0000    0.0000    0.0000   -0.0000    0.0000    0.0000   -0.0000    0.0000    0.0000    0.0000
 
 
      Orbital               11        12        13        14        15        16        17        18        19        20
      Energy         -139.3980 -139.3970 -139.3967 -139.3959  -92.3966  -92.3966  -56.4431  -43.6743  -43.6734  -43.6684
      Occ. No.          2.0000    2.0000    2.0000    2.0000    2.0000    2.0000    2.0000    2.0000    2.0000    2.0000
 
    1 C1     1s        -0.0000    0.0000   -0.0000    0.0000   -0.0000   -0.0000   -0.0000   -0.0000   -0.0000    0.0000
    2 C1     2s        -0.0000    0.0000   -0.0000    0.0000   -0.0000    0.0000   -0.0000    0.0000   -0.0000    0.0000
    3 C1     2px       -0.0000   -0.0000   -0.0000   -0.0000    0.0000   -0.0000    0.0000    0.0000    0.0000   -0.0000
    4 C1     2py       -0.0000    0.0000    0.0000   -0.0000    0.0000   -0.0000    0.0000   -0.0000   -0.0000    0.0000
    5 C1     2pz        0.0000   -0.0000   -0.0000    0.0000   -0.0000    0.0000   -0.0000    0.0000    0.0000   -0.0000
    6 S2     1s         0.0000   -0.0000    0.0000    0.0000   -0.0123    0.9999   -0.0000    0.0000   -0.0000   -0.0000
    7 S2     2s         0.0000   -0.0000    0.0000    0.0000   -0.0000   -0.0000   -0.0000    0.0000   -0.0000   -0.0000
    8 S2     3s         0.0000   -0.0000    0.0000    0.0000    0.0000   -0.0004   -0.0000    0.0000   -0.0000   -0.0000
    9 S2     2px        0.0000    0.0000   -0.0000    0.0000    0.0000   -0.0000   -0.0000   -0.0000    0.0000    0.0000
   10 S2     3px       -0.0000    0.0000   -0.0000   -0.0000    0.0000    0.0000   -0.0000   -0.0000    0.0000   -0.0000
   11 S2     2py       -0.0000    0.0000   -0.0000    0.0000    0.0000   -0.0001   -0.0000   -0.0000    0.0000    0.0000
   12 S2     3py       -0.0000    0.0000   -0.0000    0.0000    0.0000    0.0000   -0.0000   -0.0000    0.0000    0.0000
   13 S2     2pz        0.0000    0.0000   -0.0000    0.0000    0.0000   -0.0001   -0.0000    0.0000   -0.0000    0.0000
   14 S2     3pz       -0.0000    0.0000   -0.0000    0.0000   -0.0000    0.0000   -0.0000    0.0000   -0.0000    0.0000
   15 O3     1s         0.0000   -0.0000   -0.0000    0.0000   -0.0000    0.0000    0.0000    0.0000    0.0000   -0.0000
   16 O3     2s         0.0000   -0.0000   -0.0000    0.0000   -0.0000    0.0000    0.0000    0.0000    0.0000   -0.0000
   17 O3     2px        0.0000   -0.0000   -0.0000   -0.0000    0.0000   -0.0000   -0.0000    0.0000    0.0000   -0.0000
   18 O3     2py        0.0000    0.0000    0.0000   -0.0000    0.0000   -0.0000   -0.0000    0.0000    0.0000   -0.0000
   19 O3     2pz        0.0000    0.0000    0.0000    0.0000   -0.0000   -0.0000    0.0000    0.0000   -0.0000    0.0000
   20 O4     1s        -0.0000   -0.0000    0.0000    0.0000   -0.0000    0.0000    0.0000    0.0000   -0.0000   -0.0000
   21 O4     2s        -0.0000   -0.0000    0.0000    0.0000   -0.0000    0.0000    0.0000    0.0000   -0.0000   -0.0000
   22 O4     2px        0.0000    0.0000   -0.0000    0.0000    0.0000    0.0000    0.0000   -0.0000    0.0000    0.0000
   23 O4     2py       -0.0000    0.0000   -0.0000   -0.0000    0.0000   -0.0000   -0.0000    0.0000   -0.0000   -0.0000
   24 O4     2pz       -0.0000    0.0000   -0.0000    0.0000   -0.0000   -0.0000    0.0000    0.0000    0.0000    0.0000
   25 NP5    1s        -0.0000   -0.0000    0.0000   -0.0000   -0.0000   -0.0000   -0.0000    0.0000    0.0000   -0.0000
   26 NP5    2s        -0.0000   -0.0000    0.0000    0.0000   -0.0000   -0.0000    0.0000   -0.0000   -0.0000    0.0000
   27 NP5    3s         0.0000   -0.0000   -0.0000    0.0000   -0.0000   -0.0000    0.0000    0.0000    0.0000   -0.0000
   28 NP5    4s         0.0000    0.0000   -0.0000    0.0000   -0.0000   -0.0000    1.0000    0.0000    0.0000   -0.0000
   29 NP5    5s        -0.0000   -0.0000    0.0000   -0.0000   -0.0000   -0.0000   -0.0001   -0.0000   -0.0000    0.0000
   30 NP5    6s         0.0000    0.0000   -0.0000    0.0000   -0.0000   -0.0000    0.0000    0.0000    0.0000   -0.0000
   31 NP5    7s        -0.0000    0.0000   -0.0000   -0.0000   -0.0000   -0.0000   -0.0000    0.0000   -0.0000    0.0000
   32 NP5    2px        0.0000   -0.0000   -0.0000    0.0000    0.0000   -0.0000   -0.0000    0.0000    0.0000   -0.0000
   33 NP5    3px        0.0000    0.0000   -0.0000   -0.0000    0.0000   -0.0000    0.0000    0.0000    0.0000    0.0000
   34 NP5    4px       -0.0000   -0.0000    0.0000   -0.0000    0.0000   -0.0000   -0.0000    0.0018    1.0000    0.0001
   35 NP5    5px        0.0000    0.0000    0.0000    0.0000    0.0000   -0.0000   -0.0000   -0.0000   -0.0002   -0.0000
   36 NP5    6px       -0.0000   -0.0000   -0.0000   -0.0000    0.0000   -0.0000   -0.0000    0.0000    0.0000    0.0000
   37 NP5    7px       -0.0000    0.0000   -0.0000   -0.0000    0.0000   -0.0000   -0.0000   -0.0000   -0.0000    0.0000
   38 NP5    2py       -0.0000   -0.0000    0.0000   -0.0000    0.0000   -0.0000   -0.0000    0.0000   -0.0000   -0.0000
   39 NP5    3py        0.0000   -0.0000   -0.0000   -0.0000    0.0000   -0.0000    0.0000    0.0000   -0.0000   -0.0000
   40 NP5    4py        0.0000    0.0000   -0.0000    0.0000    0.0000   -0.0000   -0.0000    0.9998   -0.0017   -0.0219
   41 NP5    5py       -0.0000   -0.0000    0.0000    0.0000    0.0000   -0.0000   -0.0000   -0.0002    0.0000    0.0000
   42 NP5    6py        0.0000    0.0000   -0.0000   -0.0000    0.0000   -0.0000    0.0000    0.0000   -0.0000   -0.0000
   43 NP5    7py       -0.0000    0.0000    0.0000    0.0000    0.0000   -0.0000    0.0000   -0.0000    0.0000    0.0000
   44 NP5    2pz        0.0000    0.0000    0.0000   -0.0000   -0.0000    0.0000    0.0000    0.0000   -0.0000    0.0000
   45 NP5    3pz       -0.0000    0.0000    0.0000   -0.0000   -0.0000    0.0000   -0.0000    0.0000    0.0000    0.0000
   46 NP5    4pz       -0.0000   -0.0000   -0.0000    0.0000   -0.0000    0.0000    0.0000    0.0219   -0.0001    0.9998
   47 NP5    5pz        0.0000   -0.0000    0.0000   -0.0000   -0.0000    0.0000   -0.0000    0.0000   -0.0000   -0.0001
   48 NP5    6pz       -0.0000    0.0000   -0.0000   -0.0000   -0.0000    0.0000    0.0000    0.0000    0.0000    0.0000
   49 NP5    7pz        0.0000    0.0000   -0.0000   -0.0000    0.0000   -0.0000   -0.0000    0.0000   -0.0000   -0.0000
   50 NP5    3d2-       0.9992    0.0003   -0.0398   -0.0002   -0.0000   -0.0000   -0.0000   -0.0000    0.0000    0.0000
   51 NP5    4d2-      -0.0000   -0.0000    0.0000    0.0000   -0.0000   -0.0000    0.0000   -0.0000   -0.0000    0.0000
   52 NP5    5d2-       0.0000    0.0000   -0.0000   -0.0000   -0.0000   -0.0000    0.0000    0.0000   -0.0000   -0.0000
   53 NP5    6d2-       0.0000   -0.0000    0.0000   -0.0000   -0.0000   -0.0000   -0.0000   -0.0000   -0.0000    0.0000
   54 NP5    3d1-      -0.0004    0.9997   -0.0022   -0.0089    0.0000    0.0000   -0.0000   -0.0000    0.0000    0.0000
   55 NP5    4d1-       0.0000   -0.0000    0.0000    0.0000    0.0000    0.0000    0.0000    0.0000   -0.0000   -0.0000
   56 NP5    5d1-      -0.0000    0.0000   -0.0000   -0.0000    0.0000    0.0000    0.0000   -0.0000   -0.0000    0.0000
   57 NP5    6d1-       0.0000   -0.0000    0.0000    0.0000   -0.0000   -0.0000    0.0000    0.0000    0.0000   -0.0000
   58 NP5    3d0        0.0002    0.0089   -0.0001    1.0000    0.0000    0.0000   -0.0000   -0.0000    0.0000   -0.0000
   59 NP5    4d0       -0.0000   -0.0000    0.0000   -0.0000    0.0000    0.0000   -0.0001    0.0000    0.0000    0.0000
   60 NP5    5d0       -0.0000    0.0000    0.0000    0.0000    0.0000    0.0000    0.0001    0.0000   -0.0000   -0.0000
   61 NP5    6d0        0.0000    0.0000   -0.0000    0.0000    0.0000    0.0000    0.0000    0.0000    0.0000    0.0000
   62 NP5    3d1+       0.0398    0.0022    0.9992    0.0000    0.0000    0.0000    0.0000    0.0000   -0.0000    0.0000
   63 NP5    4d1+      -0.0000   -0.0000   -0.0000   -0.0000    0.0000    0.0000   -0.0000   -0.0000    0.0000   -0.0000
   64 NP5    5d1+       0.0000    0.0000    0.0000    0.0000    0.0000    0.0000   -0.0000   -0.0000   -0.0000   -0.0000
   65 NP5    6d1+      -0.0000   -0.0000   -0.0000   -0.0000    0.0000    0.0000   -0.0000    0.0000    0.0000   -0.0000
   66 NP5    3d2+      -0.0001    0.0232   -0.0001   -0.0007    0.0000    0.0000    0.0000   -0.0000   -0.0000   -0.0000
   67 NP5    4d2+       0.0000   -0.0000    0.0000   -0.0000    0.0000    0.0000   -0.0000    0.0000   -0.0000   -0.0000
   68 NP5    5d2+       0.0000    0.0000    0.0000    0.0000    0.0000    0.0000   -0.0000    0.0000    0.0000    0.0000
   69 NP5    6d2+      -0.0000   -0.0000   -0.0000    0.0000    0.0000    0.0000    0.0000    0.0000   -0.0000    0.0000
   70 NP5    4f3-      -0.0000    0.0000   -0.0000   -0.0000   -0.0000    0.0000    0.0000   -0.0000    0.0000   -0.0000
   71 NP5    5f3-       0.0000   -0.0000    0.0000    0.0000   -0.0000    0.0000   -0.0000   -0.0000    0.0000    0.0000
   72 NP5    4f2-       0.0000   -0.0000   -0.0000    0.0000    0.0000    0.0000   -0.0000    0.0000    0.0000    0.0000
   73 NP5    5f2-      -0.0000    0.0000   -0.0000   -0.0000    0.0000   -0.0000    0.0000   -0.0000    0.0000    0.0000
   74 NP5    4f1-      -0.0000    0.0000    0.0000   -0.0000   -0.0000    0.0000    0.0000   -0.0000    0.0000    0.0000
   75 NP5    5f1-       0.0000   -0.0000   -0.0000   -0.0000   -0.0000    0.0000   -0.0000    0.0000   -0.0000   -0.0000
   76 NP5    4f0       -0.0000    0.0000    0.0000    0.0000    0.0000   -0.0000   -0.0000   -0.0000    0.0000    0.0000
   77 NP5    5f0        0.0000    0.0000   -0.0000   -0.0000    0.0000   -0.0000    0.0000    0.0000   -0.0000    0.0000
   78 NP5    4f1+       0.0000   -0.0000    0.0000   -0.0000   -0.0000    0.0000   -0.0000   -0.0000   -0.0000   -0.0000
   79 NP5    5f1+       0.0000    0.0000   -0.0000    0.0000   -0.0000    0.0000    0.0000    0.0000    0.0000   -0.0000
   80 NP5    4f2+      -0.0000    0.0000   -0.0000   -0.0000    0.0000   -0.0000   -0.0000   -0.0000   -0.0000   -0.0000
   81 NP5    5f2+       0.0000    0.0000    0.0000    0.0000   -0.0000    0.0000    0.0000   -0.0000   -0.0000    0.0000
   82 NP5    4f3+       0.0000    0.0000   -0.0000    0.0000   -0.0000    0.0000   -0.0000   -0.0000   -0.0000   -0.0000
   83 NP5    5f3+       0.0000   -0.0000    0.0000   -0.0000   -0.0000    0.0000    0.0000    0.0000    0.0000    0.0000
   84 O6     1s        -0.0000   -0.0000    0.0000   -0.0000    0.0000    0.0000    0.0000    0.0000   -0.0000    0.0000
   85 O6     2s        -0.0000   -0.0000    0.0000   -0.0000    0.0000    0.0000    0.0000    0.0000   -0.0000    0.0000
   86 O6     2px        0.0000    0.0000    0.0000   -0.0000   -0.0000    0.0000   -0.0000   -0.0000   -0.0000   -0.0000
   87 O6     2py       -0.0000    0.0000   -0.0000    0.0000   -0.0000    0.0000    0.0000   -0.0000    0.0000    0.0000
   88 O6     2pz       -0.0000   -0.0000    0.0000   -0.0000   -0.0000   -0.0000   -0.0000    0.0000    0.0000    0.0000
   89 O7     1s         0.0000   -0.0000   -0.0000    0.0000    0.0000   -0.0000    0.0000   -0.0000   -0.0000    0.0000
   90 O7     2s         0.0000   -0.0000   -0.0000    0.0000    0.0000   -0.0000    0.0000   -0.0000   -0.0000    0.0000
   91 O7     2px       -0.0000    0.0000    0.0000    0.0000    0.0000    0.0000    0.0000    0.0000    0.0000   -0.0000
   92 O7     2py       -0.0000   -0.0000   -0.0000    0.0000    0.0000   -0.0000    0.0000    0.0000    0.0000   -0.0000
   93 O7     2pz       -0.0000   -0.0000   -0.0000   -0.0000    0.0000    0.0000   -0.0000    0.0000   -0.0000    0.0000
   94 S8     1s         0.0000   -0.0000    0.0000    0.0000    0.9999    0.0123   -0.0000   -0.0000    0.0000    0.0000
   95 S8     2s         0.0000   -0.0000    0.0000    0.0000   -0.0000   -0.0000   -0.0000   -0.0000    0.0000    0.0000
   96 S8     3s         0.0000   -0.0000    0.0000    0.0000   -0.0004   -0.0000   -0.0000   -0.0000    0.0000    0.0000
   97 S8     2px       -0.0000   -0.0000    0.0000   -0.0000   -0.0000   -0.0000   -0.0000   -0.0000    0.0000    0.0000
   98 S8     3px        0.0000    0.0000    0.0000    0.0000   -0.0000   -0.0000    0.0000   -0.0000    0.0000   -0.0000
   99 S8     2py        0.0000   -0.0000    0.0000   -0.0000    0.0001    0.0000    0.0000   -0.0000    0.0000    0.0000
  100 S8     3py        0.0000   -0.0000    0.0000   -0.0000   -0.0000   -0.0000    0.0000   -0.0000    0.0000    0.0000
  101 S8     2pz        0.0000   -0.0000    0.0000   -0.0000    0.0001    0.0000    0.0000    0.0000   -0.0000    0.0000
  102 S8     3pz        0.0000   -0.0000    0.0000   -0.0000   -0.0000    0.0000    0.0000    0.0000   -0.0000    0.0000
  103 C9     1s        -0.0000    0.0000   -0.0000    0.0000   -0.0000   -0.0000   -0.0000    0.0000    0.0000   -0.0000
  104 C9     2s        -0.0000    0.0000   -0.0000    0.0000    0.0000   -0.0000   -0.0000   -0.0000    0.0000   -0.0000
  105 C9     2px        0.0000    0.0000    0.0000    0.0000    0.0000   -0.0000   -0.0000    0.0000    0.0000   -0.0000
  106 C9     2py        0.0000   -0.0000   -0.0000    0.0000    0.0000   -0.0000   -0.0000   -0.0000   -0.0000    0.0000
  107 C9     2pz       -0.0000    0.0000    0.0000   -0.0000   -0.0000    0.0000    0.0000    0.0000    0.0000   -0.0000
  108 O10    1s        -0.0000   -0.0000    0.0000   -0.0000    0.0000    0.0000    0.0000   -0.0000    0.0000   -0.0000
  109 O10    2s        -0.0000   -0.0000    0.0000   -0.0000    0.0000    0.0000    0.0000   -0.0000    0.0000   -0.0000
  110 O10    2px       -0.0000   -0.0000   -0.0000    0.0000   -0.0000    0.0000    0.0000   -0.0000   -0.0000   -0.0000
  111 O10    2py        0.0000   -0.0000    0.0000   -0.0000   -0.0000    0.0000   -0.0000   -0.0000    0.0000    0.0000
  112 O10    2pz        0.0000    0.0000   -0.0000    0.0000    0.0000    0.0000    0.0000    0.0000    0.0000    0.0000
  113 O11    1s        -0.0000   -0.0000    0.0000    0.0000    0.0000   -0.0000    0.0000   -0.0000    0.0000    0.0000
  114 O11    2s        -0.0000   -0.0000    0.0000    0.0000    0.0000   -0.0000    0.0000   -0.0000    0.0000    0.0000
  115 O11    2px       -0.0000   -0.0000    0.0000   -0.0000   -0.0000   -0.0000   -0.0000   -0.0000    0.0000    0.0000
  116 O11    2py        0.0000   -0.0000    0.0000    0.0000    0.0000   -0.0000    0.0000    0.0000   -0.0000   -0.0000
  117 O11    2pz        0.0000   -0.0000    0.0000   -0.0000    0.0000    0.0000   -0.0000    0.0000    0.0000    0.0000
  118 H12    1s         0.0000    0.0000   -0.0000    0.0000   -0.0000   -0.0000    0.0000    0.0000   -0.0000   -0.0000
  119 H13    1s         0.0000   -0.0000    0.0000   -0.0000   -0.0000   -0.0000   -0.0000   -0.0000    0.0000    0.0000
  120 H14    1s        -0.0000    0.0000    0.0000    0.0000   -0.0000   -0.0000    0.0000    0.0000    0.0000   -0.0000
  121 H15    1s        -0.0000    0.0000    0.0000    0.0000   -0.0000   -0.0000    0.0000   -0.0000   -0.0000    0.0000
  122 H16    1s         0.0000   -0.0000   -0.0000   -0.0000   -0.0000   -0.0000   -0.0000    0.0000    0.0000   -0.0000
  123 H17    1s         0.0000    0.0000   -0.0000    0.0000   -0.0000   -0.0000    0.0000   -0.0000    0.0000    0.0000
 
 
      Orbital               21        22        23        24        25        26        27        28        29        30
      Energy          -30.0186  -30.0181  -30.0168  -30.0165  -30.0148  -20.3033  -20.3033  -20.2414  -20.2414  -20.2413
      Occ. No.          2.0000    2.0000    2.0000    2.0000    2.0000    2.0000    2.0000    2.0000    2.0000    2.0000
 
    1 C1     1s         0.0000   -0.0000   -0.0000   -0.0000   -0.0000   -0.0000    0.0000   -0.0000   -0.0000    0.0000
    2 C1     2s         0.0000   -0.0000   -0.0000   -0.0000   -0.0000   -0.0000    0.0000    0.0000   -0.0000    0.0000
    3 C1     2px        0.0000    0.0000    0.0000   -0.0000    0.0000   -0.0000   -0.0000   -0.0000   -0.0000    0.0000
    4 C1     2py        0.0000    0.0000   -0.0000   -0.0000    0.0000   -0.0000    0.0000    0.0000   -0.0000    0.0000
    5 C1     2pz       -0.0000    0.0000    0.0000    0.0000   -0.0000    0.0000   -0.0000    0.0000    0.0000   -0.0000
    6 S2     1s        -0.0000    0.0000    0.0000   -0.0000    0.0000    0.0000   -0.0000    0.0000    0.0000    0.0000
    7 S2     2s        -0.0000    0.0000    0.0000   -0.0000    0.0000    0.0000   -0.0000    0.0002    0.0000    0.0000
    8 S2     3s        -0.0000    0.0000    0.0000    0.0000    0.0000    0.0001   -0.0000    0.0008    0.0000    0.0000
    9 S2     2px       -0.0000   -0.0000   -0.0000    0.0000   -0.0000   -0.0000    0.0000    0.0001    0.0000   -0.0000
   10 S2     3px       -0.0000   -0.0000    0.0000    0.0000   -0.0000   -0.0000    0.0000    0.0008    0.0000   -0.0000
   11 S2     2py        0.0000   -0.0000   -0.0000   -0.0000   -0.0000   -0.0000    0.0000   -0.0001   -0.0000   -0.0000
   12 S2     3py        0.0000   -0.0000   -0.0000   -0.0000   -0.0000   -0.0000    0.0000   -0.0005   -0.0000   -0.0000
   13 S2     2pz       -0.0000    0.0000   -0.0000   -0.0000    0.0000    0.0000    0.0000    0.0000    0.0000    0.0000
   14 S2     3pz        0.0000    0.0000   -0.0000   -0.0000    0.0000    0.0000    0.0000    0.0001    0.0000   -0.0000
   15 O3     1s        -0.0000    0.0000    0.0000    0.0000    0.0000   -0.0000   -0.0000   -0.9917   -0.0265   -0.0008
   16 O3     2s        -0.0000    0.0000    0.0000    0.0000    0.0000    0.0000   -0.0000   -0.0018   -0.0000   -0.0000
   17 O3     2px       -0.0000   -0.0000    0.0000    0.0000    0.0000    0.0000    0.0000    0.0017    0.0001   -0.0000
   18 O3     2py        0.0000    0.0000   -0.0000   -0.0000    0.0000    0.0000    0.0000   -0.0008   -0.0000    0.0000
   19 O3     2pz       -0.0000    0.0000   -0.0000   -0.0000    0.0000   -0.0000    0.0000    0.0002    0.0000   -0.0000
   20 O4     1s         0.0000    0.0000    0.0000   -0.0000    0.0000   -0.0000   -0.0000    0.1259    0.0073   -0.0406
   21 O4     2s         0.0000    0.0000    0.0000   -0.0000    0.0000    0.0000   -0.0000    0.0002    0.0000   -0.0001
   22 O4     2px       -0.0000    0.0000   -0.0000    0.0000   -0.0000   -0.0000   -0.0000    0.0002    0.0000   -0.0001
   23 O4     2py       -0.0000    0.0000   -0.0000    0.0000    0.0000    0.0000    0.0000    0.0002   -0.0000   -0.0000
   24 O4     2pz        0.0000    0.0000   -0.0000    0.0000    0.0000   -0.0000    0.0000   -0.0000   -0.0000    0.0000
   25 NP5    1s         0.0000   -0.0000   -0.0000   -0.0000   -0.0000   -0.0000   -0.0000    0.0000    0.0000   -0.0000
   26 NP5    2s         0.0000   -0.0000    0.0000   -0.0000    0.0000   -0.0000   -0.0000    0.0000    0.0000   -0.0000
   27 NP5    3s        -0.0000    0.0000    0.0000    0.0000    0.0000   -0.0000   -0.0000    0.0000    0.0000   -0.0000
   28 NP5    4s        -0.0000    0.0000   -0.0000    0.0000    0.0001   -0.0001   -0.0000    0.0000    0.0000   -0.0000
   29 NP5    5s         0.0000   -0.0000    0.0000   -0.0000    0.0002   -0.0002   -0.0000    0.0000    0.0000   -0.0000
   30 NP5    6s        -0.0000   -0.0000   -0.0000    0.0000   -0.0001   -0.0008   -0.0001    0.0001    0.0001   -0.0001
   31 NP5    7s         0.0000   -0.0000   -0.0000    0.0000   -0.0000   -0.0010   -0.0001    0.0001    0.0001   -0.0002
   32 NP5    2px       -0.0000    0.0000    0.0000    0.0000   -0.0000    0.0000    0.0000    0.0000   -0.0000   -0.0000
   33 NP5    3px        0.0000    0.0000    0.0000   -0.0000    0.0000    0.0000    0.0000    0.0000   -0.0000   -0.0000
   34 NP5    4px        0.0000    0.0000    0.0000   -0.0000   -0.0000    0.0000    0.0000    0.0000   -0.0000   -0.0000
   35 NP5    5px       -0.0000   -0.0000   -0.0000    0.0000   -0.0000    0.0000    0.0000    0.0000   -0.0000   -0.0000
   36 NP5    6px        0.0000   -0.0000   -0.0000    0.0000   -0.0000    0.0000    0.0000    0.0000   -0.0000   -0.0000
   37 NP5    7px        0.0000    0.0000   -0.0000    0.0000   -0.0000   -0.0000    0.0000    0.0000   -0.0000   -0.0000
   38 NP5    2py        0.0000    0.0000    0.0000   -0.0000    0.0000   -0.0000    0.0000    0.0000   -0.0000    0.0000
   39 NP5    3py       -0.0000   -0.0000   -0.0000    0.0000   -0.0000   -0.0000    0.0000    0.0000   -0.0000    0.0000
   40 NP5    4py        0.0000   -0.0000   -0.0000   -0.0000   -0.0000   -0.0000    0.0000    0.0000   -0.0000    0.0000
   41 NP5    5py        0.0000    0.0000    0.0000   -0.0000    0.0000   -0.0000    0.0000    0.0000   -0.0000    0.0000
   42 NP5    6py        0.0000   -0.0000   -0.0000   -0.0000   -0.0000   -0.0000    0.0000    0.0001   -0.0001    0.0002
   43 NP5    7py        0.0000   -0.0000   -0.0000   -0.0000   -0.0000   -0.0000    0.0001    0.0003   -0.0002    0.0004
   44 NP5    2pz       -0.0000    0.0000   -0.0000    0.0000    0.0000    0.0000   -0.0000   -0.0000    0.0000   -0.0000
   45 NP5    3pz        0.0000   -0.0000    0.0000    0.0000   -0.0000    0.0000   -0.0000   -0.0000    0.0000   -0.0000
   46 NP5    4pz        0.0000   -0.0000    0.0000    0.0000   -0.0000    0.0000   -0.0000   -0.0000    0.0000   -0.0000
   47 NP5    5pz       -0.0000    0.0000   -0.0000   -0.0000   -0.0000    0.0000   -0.0002   -0.0000    0.0000   -0.0000
   48 NP5    6pz       -0.0000   -0.0000   -0.0000    0.0000   -0.0000    0.0001   -0.0009   -0.0000    0.0000   -0.0000
   49 NP5    7pz       -0.0000    0.0000    0.0000    0.0000   -0.0000    0.0000   -0.0008   -0.0000    0.0000   -0.0000
   50 NP5    3d2-       0.0000    0.0000    0.0000   -0.0000    0.0000    0.0000    0.0000    0.0000    0.0000    0.0000
   51 NP5    4d2-       0.9988    0.0003    0.0003   -0.0490    0.0004   -0.0000    0.0000    0.0000    0.0000    0.0000
   52 NP5    5d2-      -0.0003   -0.0000   -0.0000    0.0000   -0.0000   -0.0000    0.0000    0.0000    0.0000    0.0000
   53 NP5    6d2-       0.0001    0.0000    0.0000   -0.0000    0.0000   -0.0000    0.0000    0.0001    0.0001    0.0001
   54 NP5    3d1-      -0.0000   -0.0000    0.0000   -0.0000   -0.0000    0.0000    0.0000   -0.0000   -0.0000    0.0000
   55 NP5    4d1-      -0.0003   -0.0699    0.9966   -0.0002   -0.0436    0.0000    0.0000   -0.0000   -0.0000    0.0000
   56 NP5    5d1-       0.0000    0.0000   -0.0002    0.0000    0.0000    0.0000    0.0000   -0.0000   -0.0000    0.0000
   57 NP5    6d1-       0.0000   -0.0000    0.0000   -0.0000   -0.0000    0.0000    0.0000   -0.0000   -0.0000    0.0000
   58 NP5    3d0       -0.0000    0.0000    0.0000    0.0000    0.0000   -0.0000   -0.0000   -0.0000   -0.0000    0.0000
   59 NP5    4d0       -0.0004    0.1208    0.0518    0.0000    0.9913   -0.0000   -0.0000   -0.0000   -0.0000    0.0000
   60 NP5    5d0        0.0000   -0.0000   -0.0000   -0.0000   -0.0001   -0.0001   -0.0000   -0.0000   -0.0000    0.0000
   61 NP5    6d0       -0.0000    0.0000    0.0000   -0.0000    0.0000   -0.0008   -0.0001   -0.0001   -0.0001    0.0001
   62 NP5    3d1+       0.0000   -0.0000    0.0000    0.0000    0.0000    0.0000    0.0000   -0.0000   -0.0000   -0.0000
   63 NP5    4d1+       0.0490   -0.0004    0.0002    0.9988    0.0000    0.0000    0.0000   -0.0000   -0.0000   -0.0000
   64 NP5    5d1+      -0.0000    0.0000   -0.0000   -0.0002   -0.0000    0.0000    0.0000   -0.0000   -0.0000   -0.0000
   65 NP5    6d1+       0.0000   -0.0000    0.0000    0.0000   -0.0000    0.0000    0.0000   -0.0000   -0.0000   -0.0000
   66 NP5    3d2+      -0.0000    0.0000    0.0000    0.0000   -0.0000    0.0000    0.0000   -0.0000   -0.0000    0.0000
   67 NP5    4d2+      -0.0003    0.9902    0.0640    0.0004   -0.1240   -0.0000   -0.0000   -0.0000   -0.0000    0.0000
   68 NP5    5d2+       0.0000   -0.0003   -0.0000   -0.0000    0.0000    0.0000    0.0000   -0.0000   -0.0000    0.0000
   69 NP5    6d2+      -0.0000    0.0001    0.0000    0.0000   -0.0000    0.0000    0.0000   -0.0001   -0.0001    0.0002
   70 NP5    4f3-      -0.0000   -0.0000    0.0000   -0.0000    0.0000    0.0000   -0.0000   -0.0000    0.0000   -0.0000
   71 NP5    5f3-       0.0000    0.0000    0.0000   -0.0000   -0.0000    0.0000   -0.0000   -0.0000    0.0000   -0.0000
   72 NP5    4f2-       0.0000    0.0000   -0.0000   -0.0000    0.0000    0.0000   -0.0000   -0.0000    0.0000    0.0000
   73 NP5    5f2-      -0.0000    0.0000    0.0000    0.0000    0.0000    0.0000   -0.0000   -0.0000    0.0000    0.0000
   74 NP5    4f1-       0.0000   -0.0000    0.0000   -0.0000   -0.0000   -0.0000    0.0000   -0.0000    0.0000   -0.0000
   75 NP5    5f1-      -0.0000    0.0000   -0.0000    0.0000    0.0000   -0.0000    0.0000   -0.0000    0.0000   -0.0000
   76 NP5    4f0        0.0000    0.0000    0.0000    0.0000    0.0000    0.0000   -0.0000    0.0000   -0.0000    0.0000
   77 NP5    5f0        0.0000   -0.0000   -0.0000    0.0000   -0.0000    0.0000   -0.0001    0.0000   -0.0000    0.0000
   78 NP5    4f1+       0.0000    0.0000   -0.0000    0.0000   -0.0000   -0.0000   -0.0000   -0.0000    0.0000    0.0000
   79 NP5    5f1+      -0.0000   -0.0000   -0.0000   -0.0000   -0.0000   -0.0000    0.0000   -0.0000    0.0000    0.0000
   80 NP5    4f2+      -0.0000    0.0000    0.0000   -0.0000    0.0000   -0.0000    0.0000    0.0000   -0.0000    0.0000
   81 NP5    5f2+       0.0000   -0.0000   -0.0000   -0.0000   -0.0000   -0.0000    0.0000    0.0000   -0.0000    0.0000
   82 NP5    4f3+       0.0000   -0.0000   -0.0000   -0.0000    0.0000    0.0000   -0.0000   -0.0000    0.0000    0.0000
   83 NP5    5f3+      -0.0000    0.0000    0.0000    0.0000    0.0000   -0.0000    0.0000   -0.0000    0.0000    0.0000
   84 O6     1s        -0.0000    0.0000    0.0000    0.0000    0.0000    0.7496   -0.6621   -0.0000   -0.0000    0.0000
   85 O6     2s        -0.0000    0.0000    0.0000    0.0000    0.0000    0.0012   -0.0010   -0.0000    0.0000   -0.0000
   86 O6     2px       -0.0000    0.0000   -0.0000   -0.0000    0.0000    0.0000   -0.0000    0.0000   -0.0000   -0.0000
   87 O6     2py        0.0000    0.0000   -0.0000    0.0000    0.0000    0.0000   -0.0000   -0.0000    0.0000   -0.0000
   88 O6     2pz       -0.0000    0.0000    0.0000    0.0000    0.0000    0.0010   -0.0009    0.0000    0.0000   -0.0000
   89 O7     1s        -0.0000    0.0000    0.0000    0.0000    0.0000   -0.0000    0.0000    0.0275   -0.9861    0.1638
   90 O7     2s        -0.0000    0.0000    0.0000    0.0000    0.0000    0.0000    0.0000    0.0001   -0.0018    0.0003
   91 O7     2px        0.0000    0.0000   -0.0000   -0.0000   -0.0000   -0.0000   -0.0000    0.0000   -0.0017    0.0003
   92 O7     2py       -0.0000   -0.0000    0.0000    0.0000   -0.0000   -0.0000    0.0000   -0.0000    0.0008   -0.0000
   93 O7     2pz        0.0000   -0.0000    0.0000    0.0000   -0.0000   -0.0000    0.0000    0.0000   -0.0002    0.0000
   94 S8     1s        -0.0000    0.0000    0.0000   -0.0000    0.0000    0.0000    0.0000   -0.0000    0.0000   -0.0000
   95 S8     2s        -0.0000    0.0000    0.0000   -0.0000    0.0000    0.0000    0.0000   -0.0000    0.0002   -0.0003
   96 S8     3s        -0.0000    0.0000    0.0000   -0.0000    0.0000    0.0000    0.0000   -0.0000    0.0008   -0.0011
   97 S8     2px        0.0000    0.0000    0.0000   -0.0000    0.0000    0.0000    0.0000    0.0000   -0.0001   -0.0001
   98 S8     3px        0.0000    0.0000   -0.0000   -0.0000    0.0000    0.0000    0.0000    0.0000   -0.0009   -0.0006
   99 S8     2py       -0.0000    0.0000    0.0000    0.0000    0.0000    0.0000    0.0000   -0.0000    0.0001   -0.0001
  100 S8     3py       -0.0000    0.0000    0.0000    0.0000    0.0000    0.0000    0.0000   -0.0000    0.0004   -0.0006
  101 S8     2pz        0.0000   -0.0000    0.0000   -0.0000   -0.0000   -0.0000    0.0000    0.0000   -0.0000    0.0000
  102 S8     3pz       -0.0000   -0.0000    0.0000    0.0000   -0.0000   -0.0000    0.0000   -0.0000   -0.0001    0.0001
  103 C9     1s         0.0000   -0.0000   -0.0000   -0.0000   -0.0000   -0.0000   -0.0000   -0.0000   -0.0000    0.0000
  104 C9     2s         0.0000   -0.0000   -0.0000   -0.0000   -0.0000   -0.0000   -0.0000   -0.0000    0.0000   -0.0000
  105 C9     2px       -0.0000   -0.0000   -0.0000    0.0000   -0.0000    0.0000   -0.0000    0.0000    0.0000    0.0000
  106 C9     2py       -0.0000   -0.0000    0.0000    0.0000   -0.0000    0.0000    0.0000    0.0000   -0.0000    0.0000
  107 C9     2pz        0.0000   -0.0000   -0.0000   -0.0000    0.0000   -0.0000   -0.0000   -0.0000   -0.0000    0.0000
  108 O10    1s        -0.0000    0.0000    0.0000   -0.0000    0.0000    0.6621    0.7495   -0.0000   -0.0000    0.0000
  109 O10    2s        -0.0000    0.0000    0.0000   -0.0000    0.0000    0.0011    0.0011    0.0000   -0.0000    0.0000
  110 O10    2px        0.0000   -0.0000    0.0000    0.0000    0.0000   -0.0000   -0.0000    0.0000   -0.0000   -0.0000
  111 O10    2py       -0.0000   -0.0000    0.0000   -0.0000   -0.0000   -0.0000   -0.0000   -0.0000    0.0000   -0.0000
  112 O10    2pz        0.0000   -0.0000   -0.0000   -0.0000   -0.0000   -0.0009   -0.0010   -0.0000   -0.0000    0.0000
  113 O11    1s         0.0000    0.0000    0.0000   -0.0000    0.0000   -0.0000   -0.0000   -0.0001    0.1641    0.9857
[...]
      3d1-     0.0000  0.0000  0.0000  0.0000  2.0000  0.0000  0.0000  0.0000  0.0000  0.0000  0.0000  0.0000
      3d2-     0.0000  0.0000  0.0000  0.0000  2.0000  0.0000  0.0000  0.0000  0.0000  0.0000  0.0000  0.0000
      4px      0.0000  0.0000  0.0000  0.0000  2.0000  0.0000  0.0000  0.0000  0.0000  0.0000  0.0000  0.0000
      4pz      0.0000  0.0000  0.0000  0.0000  2.0000  0.0000  0.0000  0.0000  0.0000  0.0000  0.0000  0.0000
      4py      0.0000  0.0000  0.0000  0.0000  2.0000  0.0000  0.0000  0.0000  0.0000  0.0000  0.0000  0.0000
      5s       0.0000  0.0000  0.0000  0.0000  2.0000  0.0000  0.0000  0.0000  0.0000  0.0000  0.0000  0.0000
      4d2+     0.0000  0.0000  0.0000  0.0000  2.0000  0.0000  0.0000  0.0000  0.0000  0.0000  0.0000  0.0000
      4d1+     0.0000  0.0000  0.0000  0.0000  2.0000  0.0000  0.0000  0.0000  0.0000  0.0000  0.0000  0.0000
      4d0      0.0000  0.0000  0.0000  0.0000  2.0000  0.0000  0.0000  0.0000  0.0000  0.0000  0.0000  0.0000
      4d1-     0.0000  0.0000  0.0000  0.0000  2.0000  0.0000  0.0000  0.0000  0.0000  0.0000  0.0000  0.0000
      4d2-     0.0000  0.0000  0.0000  0.0000  2.0000  0.0000  0.0000  0.0000  0.0000  0.0000  0.0000  0.0000
      5px      0.0000  0.0000  0.0000  0.0000  2.0000  0.0000  0.0000  0.0000  0.0000  0.0000  0.0000  0.0000
      5pz      0.0000  0.0000  0.0000  0.0000  2.0002  0.0000  0.0000  0.0000  0.0000  0.0000  0.0000  0.0000
      5py      0.0000  0.0000  0.0000  0.0000  2.0000  0.0000  0.0000  0.0000  0.0000  0.0000  0.0000  0.0000
      6s       0.0000  0.0000  0.0000  0.0000  1.9871  0.0000  0.0000  0.0000  0.0000  0.0000  0.0000  0.0000
      4f3+     0.0000  0.0000  0.0000  0.0000  2.0000  0.0000  0.0000  0.0000  0.0000  0.0000  0.0000  0.0000
      4f2+     0.0000  0.0000  0.0000  0.0000  2.0000  0.0000  0.0000  0.0000  0.0000  0.0000  0.0000  0.0000
      4f1+     0.0000  0.0000  0.0000  0.0000  2.0000  0.0000  0.0000  0.0000  0.0000  0.0000  0.0000  0.0000
      4f0      0.0000  0.0000  0.0000  0.0000  2.0000  0.0000  0.0000  0.0000  0.0000  0.0000  0.0000  0.0000
      4f1-     0.0000  0.0000  0.0000  0.0000  2.0000  0.0000  0.0000  0.0000  0.0000  0.0000  0.0000  0.0000
      4f2-     0.0000  0.0000  0.0000  0.0000  2.0000  0.0000  0.0000  0.0000  0.0000  0.0000  0.0000  0.0000
      4f3-     0.0000  0.0000  0.0000  0.0000  2.0000  0.0000  0.0000  0.0000  0.0000  0.0000  0.0000  0.0000
      5d2+     0.0000  0.0000  0.0000  0.0000  2.0000  0.0000  0.0000  0.0000  0.0000  0.0000  0.0000  0.0000
      5d1+     0.0000  0.0000  0.0000  0.0000  1.9998  0.0000  0.0000  0.0000  0.0000  0.0000  0.0000  0.0000
      5d0      0.0000  0.0000  0.0000  0.0000  1.9988  0.0000  0.0000  0.0000  0.0000  0.0000  0.0000  0.0000
      5d1-     0.0000  0.0000  0.0000  0.0000  1.9998  0.0000  0.0000  0.0000  0.0000  0.0000  0.0000  0.0000
      5d2-     0.0000  0.0000  0.0000  0.0000  1.9999  0.0000  0.0000  0.0000  0.0000  0.0000  0.0000  0.0000
      6px      0.0000  0.0000  0.0000  0.0000  1.9861  0.0000  0.0000  0.0000  0.0000  0.0000  0.0000  0.0000
      6pz      0.0000  0.0000  0.0000  0.0000  1.7727  0.0000  0.0000  0.0000  0.0000  0.0000  0.0000  0.0000
      6py      0.0000  0.0000  0.0000  0.0000  1.9776  0.0000  0.0000  0.0000  0.0000  0.0000  0.0000  0.0000
      7s       0.0000  0.0000  0.0000  0.0000  0.1864  0.0000  0.0000  0.0000  0.0000  0.0000  0.0000  0.0000
      5f3+     0.0000  0.0000  0.0000  0.0000  0.8119  0.0000  0.0000  0.0000  0.0000  0.0000  0.0000  0.0000
      5f2+     0.0000  0.0000  0.0000  0.0000  0.2319  0.0000  0.0000  0.0000  0.0000  0.0000  0.0000  0.0000
      5f1+     0.0000  0.0000  0.0000  0.0000  0.3009  0.0000  0.0000  0.0000  0.0000  0.0000  0.0000  0.0000
      5f0      0.0000  0.0000  0.0000  0.0000  1.0775  0.0000  0.0000  0.0000  0.0000  0.0000  0.0000  0.0000
      5f1-     0.0000  0.0000  0.0000  0.0000  0.2788  0.0000  0.0000  0.0000  0.0000  0.0000  0.0000  0.0000
      5f2-     0.0000  0.0000  0.0000  0.0000  0.4080  0.0000  0.0000  0.0000  0.0000  0.0000  0.0000  0.0000
      5f3-     0.0000  0.0000  0.0000  0.0000  0.5352  0.0000  0.0000  0.0000  0.0000  0.0000  0.0000  0.0000
      6d2+     0.0000  0.0000  0.0000  0.0000  0.0331  0.0000  0.0000  0.0000  0.0000  0.0000  0.0000  0.0000
      6d1+     0.0000  0.0000  0.0000  0.0000  0.4579  0.0000  0.0000  0.0000  0.0000  0.0000  0.0000  0.0000
      6d0      0.0000  0.0000  0.0000  0.0000  0.4595  0.0000  0.0000  0.0000  0.0000  0.0000  0.0000  0.0000
      6d1-     0.0000  0.0000  0.0000  0.0000  0.4562  0.0000  0.0000  0.0000  0.0000  0.0000  0.0000  0.0000
      6d2-     0.0000  0.0000  0.0000  0.0000  0.1875  0.0000  0.0000  0.0000  0.0000  0.0000  0.0000  0.0000
      7px      0.0000  0.0000  0.0000  0.0000  0.1117  0.0000  0.0000  0.0000  0.0000  0.0000  0.0000  0.0000
      7pz      0.0000  0.0000  0.0000  0.0000  0.0941  0.0000  0.0000  0.0000  0.0000  0.0000  0.0000  0.0000
      7py      0.0000  0.0000  0.0000  0.0000  0.1354  0.0000  0.0000  0.0000  0.0000  0.0000  0.0000  0.0000
      Total    6.5978 15.0986  8.7451  8.7452 91.4882  8.5892  8.7451 15.0986  6.5978  8.5892  8.7452  0.8400
 
      N-E     -0.5978  0.9014 -0.7451 -0.7452  1.5118 -0.5892 -0.7451  0.9014 -0.5978 -0.5892 -0.7452  0.1600
 
                H13     H14     H15     H16     H17   
      1s       0.8001  0.8400  0.8400  0.8001  0.8400
      2s       0.0000  0.0000  0.0000  0.0000  0.0000
      2px      0.0000  0.0000  0.0000  0.0000  0.0000
      2pz      0.0000  0.0000  0.0000  0.0000  0.0000
      2py      0.0000  0.0000  0.0000  0.0000  0.0000
      3s       0.0000  0.0000  0.0000  0.0000  0.0000
      3px      0.0000  0.0000  0.0000  0.0000  0.0000
      3pz      0.0000  0.0000  0.0000  0.0000  0.0000
      3py      0.0000  0.0000  0.0000  0.0000  0.0000
      4s       0.0000  0.0000  0.0000  0.0000  0.0000
      3d2+     0.0000  0.0000  0.0000  0.0000  0.0000
      3d1+     0.0000  0.0000  0.0000  0.0000  0.0000
      3d0      0.0000  0.0000  0.0000  0.0000  0.0000
      3d1-     0.0000  0.0000  0.0000  0.0000  0.0000
      3d2-     0.0000  0.0000  0.0000  0.0000  0.0000
      4px      0.0000  0.0000  0.0000  0.0000  0.0000
      4pz      0.0000  0.0000  0.0000  0.0000  0.0000
      4py      0.0000  0.0000  0.0000  0.0000  0.0000
      5s       0.0000  0.0000  0.0000  0.0000  0.0000
      4d2+     0.0000  0.0000  0.0000  0.0000  0.0000
      4d1+     0.0000  0.0000  0.0000  0.0000  0.0000
      4d0      0.0000  0.0000  0.0000  0.0000  0.0000
      4d1-     0.0000  0.0000  0.0000  0.0000  0.0000
      4d2-     0.0000  0.0000  0.0000  0.0000  0.0000
      5px      0.0000  0.0000  0.0000  0.0000  0.0000
      5pz      0.0000  0.0000  0.0000  0.0000  0.0000
      5py      0.0000  0.0000  0.0000  0.0000  0.0000
      6s       0.0000  0.0000  0.0000  0.0000  0.0000
      4f3+     0.0000  0.0000  0.0000  0.0000  0.0000
      4f2+     0.0000  0.0000  0.0000  0.0000  0.0000
      4f1+     0.0000  0.0000  0.0000  0.0000  0.0000
      4f0      0.0000  0.0000  0.0000  0.0000  0.0000
      4f1-     0.0000  0.0000  0.0000  0.0000  0.0000
      4f2-     0.0000  0.0000  0.0000  0.0000  0.0000
      4f3-     0.0000  0.0000  0.0000  0.0000  0.0000
      5d2+     0.0000  0.0000  0.0000  0.0000  0.0000
      5d1+     0.0000  0.0000  0.0000  0.0000  0.0000
      5d0      0.0000  0.0000  0.0000  0.0000  0.0000
      5d1-     0.0000  0.0000  0.0000  0.0000  0.0000
      5d2-     0.0000  0.0000  0.0000  0.0000  0.0000
      6px      0.0000  0.0000  0.0000  0.0000  0.0000
      6pz      0.0000  0.0000  0.0000  0.0000  0.0000
      6py      0.0000  0.0000  0.0000  0.0000  0.0000
      7s       0.0000  0.0000  0.0000  0.0000  0.0000
      5f3+     0.0000  0.0000  0.0000  0.0000  0.0000
      5f2+     0.0000  0.0000  0.0000  0.0000  0.0000
      5f1+     0.0000  0.0000  0.0000  0.0000  0.0000
      5f0      0.0000  0.0000  0.0000  0.0000  0.0000
      5f1-     0.0000  0.0000  0.0000  0.0000  0.0000
      5f2-     0.0000  0.0000  0.0000  0.0000  0.0000
      5f3-     0.0000  0.0000  0.0000  0.0000  0.0000
      6d2+     0.0000  0.0000  0.0000  0.0000  0.0000
      6d1+     0.0000  0.0000  0.0000  0.0000  0.0000
      6d0      0.0000  0.0000  0.0000  0.0000  0.0000
      6d1-     0.0000  0.0000  0.0000  0.0000  0.0000
      6d2-     0.0000  0.0000  0.0000  0.0000  0.0000
      7px      0.0000  0.0000  0.0000  0.0000  0.0000
      7pz      0.0000  0.0000  0.0000  0.0000  0.0000
      7py      0.0000  0.0000  0.0000  0.0000  0.0000
      Total    0.8001  0.8400  0.8400  0.8001  0.8400
 
      N-E      0.1999  0.1600  0.1600  0.1999  0.1600
 
      Total electronic charge=  192.000000
 
      Total            charge=   -1.000000
--
 
 

      Expectation values of various properties for root number: 10
      -----------------------------------------------------------
 
 
++    Molecular properties:
      ---------------------
 
      Charge (e):
                      =   -1.0000
      Dipole Moment (Debye):
      Origin of the operator (Ang)=    0.0000    0.0000    0.0000
                   X= -2.7539E-03               Y= -3.4495E-05               Z= -3.0399E-05           Total=  2.7542E-03
      Center of Charge (Ang)
                     X=    0.00057334               Y=    0.00000718               Z=    0.00000633
      Quadrupole Moment (Debye*Ang):
      Origin of the operator (Ang)=    0.0003   -0.0000   -0.0000
                  XX= -1.3083E+02              XY=  3.4351E-02              XZ= -5.7979E-02              YY= -1.2923E+02
                  YZ= -7.9225E+00              ZZ= -1.3109E+02
      In traceless form (Debye*Ang)
                  XX= -6.7563E-01              XY=  5.1526E-02              XZ= -8.6968E-02              YY=  1.7365E+00
                  YZ= -1.1884E+01              ZZ= -1.0609E+00
--
 

      LoProp population analysis for root number: 10
      -----------------------------------------------
 
 
++    LoProp analysis:
      ----------------
 
 
 
  Input file to MOLDEN was generated!
 
 
++    Static properties:
      ------------------
 
 
      LoProp Charges per center
 

                   C1       S2       O3       O4       NP5      O6       O7       S8       C9       O10   
      Nuclear      6.0000  16.0000   8.0000   8.0000  93.0000   8.0000   8.0000  16.0000   6.0000   8.0000
      Electronic  -6.4497 -15.0142  -8.8209  -8.8208 -90.5357  -8.9882  -8.8209 -15.0142  -6.4497  -8.9882
 
      Total       -0.4497   0.9858  -0.8209  -0.8208   2.4643  -0.9882  -0.8209   0.9858  -0.4497  -0.9882
 

                   O11      H12      H13      H14      H15      H16      H17   
      Nuclear      8.0000   1.0000   1.0000   1.0000   1.0000   1.0000   1.0000
      Electronic  -8.8208  -0.8915  -0.8553  -0.8915  -0.8915  -0.8553  -0.8915
 
      Total       -0.8208   0.1085   0.1447   0.1085   0.1085   0.1447   0.1085
--
 
 
      Natural Bond Order analysis for root number: 10
 
++    Natural Bond Order analysis
      ---------------------------
      Based on LoProp computed density
      -------------------------------------------------------------------------------------
      Atom A       Atom B       Bond Order | Atom A       Atom B       Bond Order
        C1           S2             1.000  |   S8           C9             1.000
        C1           H15            0.999  |   C9           H12            0.999
        C1           H16            1.000  |   C9           H13            1.000
        C1           H17            0.999  |   C9           H14            0.999
        NP5          O6             3.995  |   O3           NP5            1.995
        NP5          O10            3.995  |   NP5          O7             1.995
      -------------------------------------------------------------------------------------
      NBO located    120.000 core electrons.
      NBO located     32.717 lone pair electrons.
      NBO located     39.955 electrons involved in   12 bonds.
      NBO analysis, and just that ONLY, did not converge to a
      proper answer, sorry. Calculation will continue as normal.
--
 
--
 
 
  Input file to MOLDEN was generated!
 
 
  Input file to MOLDEN was generated!
 
 
  Input file to MOLDEN was generated!
 
 
  Input file to MOLDEN was generated!
 
 
  Input file to MOLDEN was generated!
 
 
  Input file to MOLDEN was generated!
 
 
  Input file to MOLDEN was generated!
 
 
  Input file to MOLDEN was generated!
 
 
  Input file to MOLDEN was generated!
 
 
  Input file to MOLDEN was generated!
 
 
  Input file to MOLDEN was generated!
 
      Average orbitals are written to the RASORB file
      Natural orbitals for root   1 are written to the RASORB.1 file
      Natural orbitals for root   2 are written to the RASORB.2 file
      Natural orbitals for root   3 are written to the RASORB.3 file
      Natural orbitals for root   4 are written to the RASORB.4 file
      Natural orbitals for root   5 are written to the RASORB.5 file
      Natural orbitals for root   6 are written to the RASORB.6 file
      Natural orbitals for root   7 are written to the RASORB.7 file
      Natural orbitals for root   8 are written to the RASORB.8 file
      Natural orbitals for root   9 are written to the RASORB.9 file
      Natural orbitals for root  10 are written to the RASORB.10 file
      Spin density orbitals for root   1 are written to the SPDORB.1 file
      Spin density orbitals for root   2 are written to the SPDORB.2 file
      Spin density orbitals for root   3 are written to the SPDORB.3 file
      Spin density orbitals for root   4 are written to the SPDORB.4 file
      Spin density orbitals for root   5 are written to the SPDORB.5 file
      Spin density orbitals for root   6 are written to the SPDORB.6 file
      Spin density orbitals for root   7 are written to the SPDORB.7 file
      Spin density orbitals for root   8 are written to the SPDORB.8 file
      Spin density orbitals for root   9 are written to the SPDORB.9 file
      Spin density orbitals for root  10 are written to the SPDORB.10 file
 
 ###############################################################################
 ###############################################################################
 ###                                                                         ###
 ###                                                                         ###
 ###    RunFile label Unique Atom Name                                       ###
 ###    was used       42 times                                              ###
 ###                                                                         ###
 ###                                                                         ###
 ###############################################################################
 ###############################################################################
 ###############################################################################
 ###############################################################################
 ###                                                                         ###
 ###                                                                         ###
 ###    RunFile label BirthCertificate                                       ###
 ###    was used       64 times                                              ###
 ###                                                                         ###
 ###                                                                         ###
 ###############################################################################
 ###############################################################################
 ###############################################################################
 ###############################################################################
 ###                                                                         ###
 ###                                                                         ###
 ###    RunFile label Unique Coordinat                                       ###
 ###    was used       52 times                                              ###
 ###                                                                         ###
 ###                                                                         ###
 ###############################################################################
 ###############################################################################
 ###############################################################################
 ###############################################################################
 ###                                                                         ###
 ###                                                                         ###
 ###    RunFile label nBas                                                   ###
 ###    was used       79 times                                              ###
 ###                                                                         ###
 ###                                                                         ###
 ###############################################################################
 ###############################################################################
--- Stop Module: rasscf at Thu Nov 15 10:32:14 2018 /rc=_RC_ALL_IS_WELL_ ---
*** files: NpO2_CH3SO2_CH3SO2-m1-triplet.casscf.MB.LprOrb NpO2_CH3SO2_CH3SO2-m1-triplet.casscf.MB.rasscf.molden.9 NpO2_CH3SO2_CH3SO2-m1-triplet.casscf.MB.rasscf.molden.1
           NpO2_CH3SO2_CH3SO2-m1-triplet.casscf.MB.rasscf.molden.5 NpO2_CH3SO2_CH3SO2-m1-triplet.casscf.MB.rasscf.molden.8 NpO2_CH3SO2_CH3SO2-m1-triplet.casscf.MB.rasscf.molden
           NpO2_CH3SO2_CH3SO2-m1-triplet.casscf.MB.rasscf.molden.4 NpO2_CH3SO2_CH3SO2-m1-triplet.casscf.MB.rasscf.molden.3 NpO2_CH3SO2_CH3SO2-m1-triplet.casscf.MB.rasscf.molden.2
           NpO2_CH3SO2_CH3SO2-m1-triplet.casscf.MB.rasscf.molden.6 NpO2_CH3SO2_CH3SO2-m1-triplet.casscf.MB.rasscf.molden.7 NpO2_CH3SO2_CH3SO2-m1-triplet.casscf.MB.rasscf.molden.10
           NpO2_CH3SO2_CH3SO2-m1-triplet.casscf.MB.LoProp.molden NpO2_CH3SO2_CH3SO2-m1-triplet.casscf.MB.RasOrb.5 NpO2_CH3SO2_CH3SO2-m1-triplet.casscf.MB.RasOrb.7
           NpO2_CH3SO2_CH3SO2-m1-triplet.casscf.MB.RasOrb.9 NpO2_CH3SO2_CH3SO2-m1-triplet.casscf.MB.RasOrb.8 NpO2_CH3SO2_CH3SO2-m1-triplet.casscf.MB.RasOrb.3
           NpO2_CH3SO2_CH3SO2-m1-triplet.casscf.MB.RasOrb.6 NpO2_CH3SO2_CH3SO2-m1-triplet.casscf.MB.RasOrb.10 NpO2_CH3SO2_CH3SO2-m1-triplet.casscf.MB.RasOrb.4
           NpO2_CH3SO2_CH3SO2-m1-triplet.casscf.MB.RasOrb.2 NpO2_CH3SO2_CH3SO2-m1-triplet.casscf.MB.RasOrb.1 NpO2_CH3SO2_CH3SO2-m1-triplet.casscf.MB.RasOrb
           NpO2_CH3SO2_CH3SO2-m1-triplet.casscf.MB.rasscf.h5 NpO2_CH3SO2_CH3SO2-m1-triplet.casscf.MB.SpdOrb.7 NpO2_CH3SO2_CH3SO2-m1-triplet.casscf.MB.SpdOrb.3
           NpO2_CH3SO2_CH3SO2-m1-triplet.casscf.MB.SpdOrb.9 NpO2_CH3SO2_CH3SO2-m1-triplet.casscf.MB.SpdOrb.6 NpO2_CH3SO2_CH3SO2-m1-triplet.casscf.MB.SpdOrb.10
           NpO2_CH3SO2_CH3SO2-m1-triplet.casscf.MB.SpdOrb.1 NpO2_CH3SO2_CH3SO2-m1-triplet.casscf.MB.SpdOrb.5 NpO2_CH3SO2_CH3SO2-m1-triplet.casscf.MB.SpdOrb.2
           NpO2_CH3SO2_CH3SO2-m1-triplet.casscf.MB.SpdOrb.8 NpO2_CH3SO2_CH3SO2-m1-triplet.casscf.MB.SpdOrb.4 xmldump
    saved to directory /home/vallet/John-methylsulfonyl/NpO2_CH3SO2_CH3SO2-m1/optg-freq-pbe0/SO-XMS
--- Module rasscf spent 42 seconds ---

>>> COPY NpO2_CH3SO2_CH3SO2-m1-triplet.casscf.MB.RasOrb /home/vallet/John-methylsulfonyl/NpO2_CH3SO2_CH3SO2-m1/optg-freq-pbe0/SO-XMS/NpO2_CH3SO2_CH3SO2-m1-triplet.casscf.MB.RasOrb_singlets

>>> COPY NpO2_CH3SO2_CH3SO2-m1-triplet.casscf.MB.rasscf.molden /home/vallet/John-methylsulfonyl/NpO2_CH3SO2_CH3SO2-m1/optg-freq-pbe0/SO-XMS/NpO2_CH3SO2_CH3SO2-m1-triplet.casscf.MB.rasscf_singlets.molden

    Timing: Wall=241.76 User=1607.40 System=48.41
