
 Primary working directories    : /state/partition2/vallet/594538.phlam-s-sakura/molpro.vFK5ZKsSfS
 Secondary working directories  : /state/partition2/vallet/594538.phlam-s-sakura/molpro.vFK5ZKsSfS
 Wavefunction directory         : /home/vallet/wfu/
 Main file repository           : /state/partition2/vallet/594538.phlam-s-sakura/molpro.vFK5ZKsSfS/

 id        : lill

 Nodes      nprocs
 u-0-2.local    8

 Using customized tuning parameters: mindgm=1; mindgv=20; mindgc=4; mindgr=1; noblas=0; minvec=7
 default implementation of scratch files=sf  


 Variables initialized (930), CPU time= 0.02 sec
  memory,150,m;
  file, 1, SO2.CCSD-T-CBS.int, new;
  file, 2, SO2.CCSD-T-CBS.wfu, new;
 
 geometry={
 Including file /home/vallet/John-methylsulfonyl/Units/SO2-m1/optg-freq-pbe0/geom-2b2/CCSD-T/SO2-m1.pbe0.optg.xyz
 }
 
 basis={
   default,aug-cc-pVTZ;
 }
 {cfit,basis_coul=mycoul,basis_exch=myexch}
 
 {hf;
 closed, 8, 5, 2, 1;
 occ,    8, 5, 3, 1;
 wf, 33, 3, 1;
 }
 uccsd(t);
 
 ehf(1) = ENERGR(1);
 ecor_ccsdt(1) = ENERGY(1)-ENERGR(1);
 ecor_mp2(1) = EMP2(1)-ENERGR(1);
 
 basis={
   default,aug-cc-pVQZ;
 }
 {cfit,basis_coul=mycoul,basis_exch=myexch}
 
 {hf;
 closed, 8, 5, 2, 1;
 occ,    8, 5, 3, 1;
 wf, 33, 3, 1;
 }
 uccsd(t);
 ehf(2) = ENERGR(1);
 ecor_ccsdt(2) = ENERGY(1)-ENERGR(1);
 ecor_mp2(2) = EMP2(1)-ENERGR(1);
 
 extrapolate, basis=avtz:avqz, eref=ehf, ecorr=ecor_ccsdt, method_r=km, method_c=LH4;
 extrapolate, basis=avtz:avqz, eref=ehf, ecorr=ecor_mp2, method_r=km, method_c=LH4;
 Commands  initialized (760), CPU time= 0.03 sec, 617 directives.
 Default parameters read. Elapsed time= 0.14 sec

 Checking input...
 Passed
1


                                         ***  PROGRAM SYSTEM MOLPRO  ***
                                       Copyright, TTI GmbH Stuttgart, 2015
                                    Version 2019.1 linked Jan 14 2019 13:09:19


 **********************************************************************************************************************************
 LABEL *                                                                                 
  64 bit mpp version                                                                     DATE: 12-Jun-19          TIME: 11:02:02  
 **********************************************************************************************************************************

 SHA1:             d688ac825633d238f2093ded1675ba87ccd55965
 **********************************************************************************************************************************

 Variable memory set to  150000000 words,  buffer space 



 Permanent file  1  so2.ccsd-t-cbs.int               assigned.  Implementation=df  
 Permanent file  2  so2.ccsd-t-cbs.wfu               assigned.  Implementation=df  



 **********************************************************************************************************************************
 DATASETS  * FILE   NREC   LENGTH (MB)   RECORD NAMES
              1       1        0.03       500   
                                          VAR  

              2       1        0.03       500   
                                          VAR  

 PROGRAMS   *        TOTAL      FILE
 CPU TIMES  *         0.24      0.02
 REAL TIME  *         0.44 SEC
 DISK USED  *         0.10 MB (local),        0.84 MB (total)
 **********************************************************************************************************************************

Geometry recognized as XYZ

 SETTING BASIS          =    AUG-CC-PVTZ


 Recomputing integrals since basis changed


 Using spherical harmonics

 Library entry O      S aug-cc-pVTZ          selected for orbital group  1
 Library entry O      P aug-cc-pVTZ          selected for orbital group  1
 Library entry O      D aug-cc-pVTZ          selected for orbital group  1
 Library entry O      F aug-cc-pVTZ          selected for orbital group  1
 Library entry S      S aug-cc-pVTZ          selected for orbital group  2
 Library entry S      P aug-cc-pVTZ          selected for orbital group  2
 Library entry S      D aug-cc-pVTZ          selected for orbital group  2
 Library entry S      F aug-cc-pVTZ          selected for orbital group  2


 PROGRAM * SEWARD (Integral evaluation for generally contracted gaussian basis sets)     Author: Roland Lindh, 1990

 Geometry written to block  1 of record 700


 Point group  C2v 



 ATOMIC COORDINATES

 NR  ATOM    CHARGE       X              Y              Z

   1  O       8.00   -2.400976032    0.000000000    0.522001126
   2  O       8.00    2.400976032    0.000000000    0.522001126
   3  S      16.00    0.000000000    0.000000000   -1.044002252

 Bond lengths in Bohr (Angstrom)

 1-3  2.866540160  2-3  2.866540160
     ( 1.516907727)     ( 1.516907727)

 Bond angles

  1-3-2  113.77231209

 NUCLEAR CHARGE:                   32
 NUMBER OF PRIMITIVE AOS:         218
 NUMBER OF SYMMETRY AOS:          191
 NUMBER OF CONTRACTIONS:          142   (   51A1  +   42B1  +   28B2  +   21A2  )
 NUMBER OF CORE ORBITALS:           7   (    4A1  +    2B1  +    1B2  +    0A2  )
 NUMBER OF VALENCE ORBITALS:       12   (    5A1  +    4B1  +    2B2  +    1A2  )


 NUCLEAR REPULSION ENERGY  102.63417984

 Eigenvalues of metric

         1 0.350E-03 0.128E-02 0.333E-02 0.470E-02 0.804E-02 0.144E-01 0.243E-01 0.434E-01
         2 0.578E-03 0.139E-02 0.496E-02 0.627E-02 0.111E-01 0.307E-01 0.439E-01 0.457E-01
         3 0.582E-02 0.149E-01 0.446E-01 0.506E-01 0.769E-01 0.151E+00 0.194E+00 0.210E+00
         4 0.770E-02 0.439E-01 0.576E-01 0.135E+00 0.173E+00 0.209E+00 0.246E+00 0.371E+00


 Contracted 2-electron integrals neglected if value below      1.0D-11
 AO integral compression algorithm  1   Integral accuracy      1.0D-11

     76.284 MB (compressed) written to integral file ( 48.8%)

     Node minimum: 8.126 MB, node maximum: 12.845 MB


 NUMBER OF SORTED TWO-ELECTRON INTEGRALS:    1650382.     BUFFER LENGTH:  32768
 NUMBER OF SEGMENTS:   1  SEGMENT LENGTH:    1650382      RECORD LENGTH: 524288

 Memory used in sort:       2.21 MW

 SORT1 READ    19531336. AND WROTE     1483984. INTEGRALS IN      5 RECORDS. CPU TIME:     0.76 SEC, REAL TIME:     0.96 SEC
 SORT2 READ    11999811. AND WROTE    13308973. INTEGRALS IN    320 RECORDS. CPU TIME:     0.25 SEC, REAL TIME:     0.45 SEC

 Node minimum:     1650382.  Node maximum:     1670029. integrals

 OPERATOR DM      FOR CENTER  0  COORDINATES:    0.000000    0.000000    0.000000


 **********************************************************************************************************************************
 DATASETS  * FILE   NREC   LENGTH (MB)   RECORD NAMES
              1      18       30.23       500      610      700      900      950      970     1000      129      960     1100   
                                          VAR    BASINP    GEOM    SYMINP    ZMAT    AOBASIS   BASIS     P2S    ABASIS      S 
                                         1400     1410     1200     1210     1080     1600     1650     1700   
                                           T        V       H0       H01     AOSYM     SMH    MOLCAS    OPER   

              2       5       12.33       500      610      700     1000      520   
                                          VAR    BASINP    GEOM     BASIS   MCVARS    

 PROGRAMS   *        TOTAL       INT      FILE
 CPU TIMES  *         2.60      2.35      0.02
 REAL TIME  *         3.81 SEC
 DISK USED  *        42.63 MB (local),      566.56 MB (total)
 GA USED    *         0.00 MB       (max)       0.00 MB       (current)
 **********************************************************************************************************************************


 PROGRAM * RHF-SCF (OPEN SHELL)       Authors: W. Meyer, H.-J. Werner


 NUMBER OF ELECTRONS:      17+   16-    SPACE SYMMETRY=3    SPIN SYMMETRY: Doublet 
 CONVERGENCE THRESHOLDS:    1.00E-05 (Density)    1.00E-07 (Energy)
 MAX. NUMBER OF ITERATIONS:       60
 INTERPOLATION TYPE:            DIIS
 INTERPOLATION STEPS:              2 (START)      1 (STEP)
 LEVEL SHIFTS:                 -0.60 (CLOSED) -0.30 (OPEN) 

 Number of closed-shell orbitals:   16 (   8   5   2   1 )
 Number of open-shell orbitals:      1 (   0   0   1   0 )


 Orbital guess generated from atomic densities. Full valence occupancy:    9   6   3   1

 Molecular orbital dump at record        2100.2

 ITERATION    DDIFF          GRAD             ENERGY        2-EL.EN.            DIPOLE MOMENTS         DIIS   ORB.
    1      0.000D+00      0.000D+00      -547.20915714    640.737845    0.00000    0.00000   -1.19311    0    start
    2      0.000D+00      0.141D-01      -547.30508954    638.148276    0.00000    0.00000   -0.44769    1    diag,B
    3      0.148D-01      0.522D-02      -547.31562865    638.318194    0.00000    0.00000   -0.53599    2    diag,B
    4      0.431D-02      0.129D-02      -547.31835137    637.864584    0.00000    0.00000   -0.50282    3    diag,B
    5      0.179D-02      0.511D-03      -547.31904041    637.635357    0.00000    0.00000   -0.49670    4    diag,B
    6      0.115D-02      0.177D-03      -547.31915581    637.579419    0.00000    0.00000   -0.50139    5    diag,B
    7      0.858D-03      0.689D-04      -547.31917965    637.568837    0.00000    0.00000   -0.50554    6    fixocc
    8      0.619D-03      0.290D-04      -547.31918457    637.567365    0.00000    0.00000   -0.50737    7    diag,B
    9      0.291D-03      0.134D-04      -547.31918570    637.568778    0.00000    0.00000   -0.50832    8    diag,B
   10      0.114D-03      0.429D-05      -547.31918579    637.569580    0.00000    0.00000   -0.50856    9    orth
   11      0.267D-04      0.146D-05      -547.31918580    637.569805    0.00000    0.00000   -0.50864    9    diag,B
   12      0.152D-04      0.485D-06      -547.31918581    637.569930    0.00000    0.00000   -0.50868    9    diag,B
   13      0.483D-05      0.196D-06      -547.31918581    637.569955    0.00000    0.00000   -0.50869    0    orth

 Final alpha occupancy:   8   5   3   1
 Final beta  occupancy:   8   5   2   1

 !RHF STATE  1.3 Energy              -547.319185805340
 Nuclear energy                       102.63417984
 One-electron energy                 -968.73834338
 Two-electron energy                  318.78497774
 Virial quotient                       -1.00071094
 !RHF STATE  1.3 Dipole moment          0.00000000     0.00000000    -0.50868834
 Dipole moment /Debye                   0.00000000     0.00000000    -1.29287211

 Orbital energies:

         1.1          2.1          3.1          4.1          5.1          6.1          7.1          8.1          9.1         10.1
    -91.858730   -20.317968    -8.841234    -6.521283    -1.157331    -0.597982    -0.377970    -0.208225     0.210061     0.227744

         1.2          2.2          3.2          4.2          5.2          6.2          7.2
    -20.317988    -6.522631    -1.065225    -0.386254    -0.234670     0.208148     0.314242

         1.3          2.3          3.3          4.3          5.3
     -6.522213    -0.360892    -0.095032     0.221883     0.369224

         1.4          2.4          3.4
     -0.246091     0.345185     0.559455


 HOMO      3.3    -0.095032 =      -2.5860eV
 LUMO      6.2     0.208148 =       5.6640eV
 LUMO-HOMO         0.303180 =       8.2500eV


 **********************************************************************************************************************************
 DATASETS  * FILE   NREC   LENGTH (MB)   RECORD NAMES
              1      18       30.24       500      610      700      900      950      970     1000      129      960     1100   
                                          VAR    BASINP    GEOM    SYMINP    ZMAT    AOBASIS   BASIS     P2S    ABASIS      S 
                                         1400     1410     1200     1210     1080     1600     1650     1700   
                                           T        V       H0       H01     AOSYM     SMH    MOLCAS    OPER   

              2       6       15.02       500      610      700     1000      520     2100   
                                          VAR    BASINP    GEOM     BASIS   MCVARS     RHF  

 PROGRAMS   *        TOTAL    HF-SCF       INT      FILE
 CPU TIMES  *         3.35      0.75      2.35      0.02
 REAL TIME  *         4.89 SEC
 DISK USED  *        46.14 MB (local),      594.66 MB (total)
 SF USED    *         0.02 MB
 GA USED    *         0.00 MB       (max)       0.00 MB       (current)
 **********************************************************************************************************************************


 PROGRAM * CCSD (Unrestricted open-shell coupled cluster)     Authors: C. Hampel, H.-J. Werner, 1991, M. Deegan, P.J. Knowles, 1992


 Convergence thresholds:  THRVAR = 1.00D-08  THRDEN = 1.00D-06

 CCSD(T)     terms to be evaluated (factor= 1.000)


 Number of core orbitals:           7 (   4   2   1   0 )
 Number of closed-shell orbitals:   9 (   4   3   1   1 )
 Number of active  orbitals:        1 (   0   0   1   0 )
 Number of external orbitals:     125 (  43  37  25  20 )

 Memory could be reduced to 10.37 Mwords without degradation in triples

 Number of N-1 electron functions:              19
 Number of N-2 electron functions:             171
 Number of singly external CSFs:               684
 Number of doubly external CSFs:            524073
 Total number of CSFs:                      524757

 Molecular orbitals read from record     2100.2  Type=RHF/CANONICAL (state 1.3)

 Integral transformation finished. Total CPU:   0.60 sec, npass=  1  Memory used:   1.37 MW

 Starting RMP2 calculation, locsing= 0

 ITER.      SQ.NORM     CORR.ENERGY   TOTAL ENERGY   ENERGY CHANGE        DEN1      VAR(S)    VAR(P)  DIIS     TIME
   1      1.20638768    -0.68483503  -548.00402083    -0.68483503    -0.00241807  0.37D-04  0.10D-02  1  1     0.76
   2      1.20895393    -0.68744334  -548.00662915    -0.00260832    -0.00000560  0.43D-06  0.31D-05  2  2     0.90
   3      1.20905798    -0.68749816  -548.00668397    -0.00005482    -0.00000003  0.87D-08  0.13D-07  3  3     1.09
   4      1.20906014    -0.68749832  -548.00668413    -0.00000016    -0.00000000  0.30D-09  0.57D-10  4  4     1.30

 Norm of t1 vector:      0.05811569      S-energy:    -0.00412527      T1 diagnostic:  0.00033243
 Norm of t2 vector:      0.45352255      P-energy:    -0.68337305
                                         Alpha-Beta:  -0.49885748
                                         Alpha-Alpha: -0.09246362
                                         Beta-Beta:   -0.09205195

 Spin contamination <S**2-Sz**2-Sz>     0.00229550
  Reference energy                   -547.319185805339
  RHF-RMP2 correlation energy          -0.687498323385
 !RHF-RMP2 energy                    -548.006684128725

 Starting UCCSD calculation

 ITER.      SQ.NORM     CORR.ENERGY   TOTAL ENERGY   ENERGY CHANGE        DEN1      VAR(S)    VAR(P)  DIIS     TIME
   1      1.19002479    -0.65686505  -547.97605086    -0.65686505    -0.02227923  0.71D-02  0.40D-02  1  1     2.16
   2      1.20883644    -0.67552352  -547.99470932    -0.01865847    -0.00235777  0.32D-03  0.82D-03  2  2     2.97
   3      1.21827160    -0.67830303  -547.99748883    -0.00277951    -0.00037487  0.30D-03  0.45D-04  3  3     3.89
   4      1.22396521    -0.67988047  -547.99906628    -0.00157745    -0.00007970  0.52D-04  0.14D-04  4  4     4.65
   5      1.22725130    -0.68028999  -547.99947579    -0.00040952    -0.00001521  0.13D-04  0.21D-05  5  5     5.36
   6      1.22883452    -0.68044666  -547.99963246    -0.00015667    -0.00000202  0.12D-05  0.49D-06  6  6     6.12
   7      1.22919971    -0.68047635  -547.99966216    -0.00002969    -0.00000035  0.24D-06  0.82D-07  6  2     6.95
   8      1.22927775    -0.68048116  -547.99966697    -0.00000481    -0.00000007  0.64D-07  0.16D-07  6  1     7.86
   9      1.22929906    -0.68048230  -547.99966810    -0.00000113    -0.00000002  0.22D-07  0.38D-08  6  3     8.71
  10      1.22930751    -0.68048346  -547.99966926    -0.00000116    -0.00000001  0.69D-08  0.12D-08  6  4     9.53
  11      1.22931206    -0.68048251  -547.99966831     0.00000095    -0.00000000  0.16D-08  0.38D-09  6  5    10.27

 Norm of t1 vector:      0.15685830      S-energy:    -0.00440795      T1 diagnostic:  0.02333458
                                                                       D1 diagnostic:  0.06243384
 Norm of t2 vector:      0.45244616      P-energy:    -0.67607456
                                         Alpha-Beta:  -0.51658049
                                         Alpha-Alpha: -0.08061172
                                         Beta-Beta:   -0.07888235

 Singles amplitudes (print threshold =  0.500E-01):

         I         SYM. A    A   T(IA) [Beta-Beta]

         8         3         1      0.08829479

 Spin contamination <S**2-Sz**2-Sz>     0.00350044

 Memory could be reduced to 11.25 Mwords without degradation in triples


 RESULTS
 =======

  Reference energy                   -547.319185805339
  UCCSD singles energy                 -0.004407953630
  UCCSD pair energy                    -0.676074555142
  UCCSD correlation energy             -0.680482508772
  Triples (T) contribution             -0.035225928433
  Total correlation energy             -0.715708437205

  RHF-UCCSD energy                   -547.999668314111
  RHF-UCCSD[T] energy                -548.037483938121
  RHF-UCCSD-T energy                 -548.033977785172
 !RHF-UCCSD(T) energy                -548.034894242544

 Program statistics:

 Available memory in ccsd:               149999092
 Min. memory needed in ccsd:               1573567
 Max. memory used in ccsd:                 2209281
 Max. memory used in cckext:               2008199 (11 integral passes)
 Max. memory used in cckint:               1373639 ( 1 integral passes)



 **********************************************************************************************************************************
 DATASETS  * FILE   NREC   LENGTH (MB)   RECORD NAMES
              1      18       30.24       500      610      700      900      950      970     1000      129      960     1100   
                                          VAR    BASINP    GEOM    SYMINP    ZMAT    AOBASIS   BASIS     P2S    ABASIS      S 
                                         1400     1410     1200     1210     1080     1600     1650     1700   
                                           T        V       H0       H01     AOSYM     SMH    MOLCAS    OPER   

              2       6       15.02       500      610      700     1000      520     2100   
                                          VAR    BASINP    GEOM     BASIS   MCVARS     RHF  

 PROGRAMS   *        TOTAL  UCCSD(T)    HF-SCF       INT      FILE
 CPU TIMES  *        22.24     18.85      0.75      2.35      0.02
 REAL TIME  *        29.62 SEC
 DISK USED  *       111.38 MB (local),        1.12 GB (total)
 SF USED    *       184.02 MB
 GA USED    *         0.00 MB       (max)       0.00 MB       (current)
 **********************************************************************************************************************************
 SETTING EHF(1)         =      -547.31918581  AU                              
 SETTING ECOR_CCSDT(1)  =        -0.71570844  AU                              
 SETTING ECOR_MP2(1)    =        -0.68749832  AU                              
 SETTING BASIS          =    AUG-CC-PVQZ


 Recomputing integrals since basis changed


 Using spherical harmonics

 Library entry O      S aug-cc-pVQZ          selected for orbital group  1
 Library entry O      P aug-cc-pVQZ          selected for orbital group  1
 Library entry O      D aug-cc-pVQZ          selected for orbital group  1
 Library entry O      F aug-cc-pVQZ          selected for orbital group  1
 Library entry O      G aug-cc-pVQZ          selected for orbital group  1
 Library entry S      S aug-cc-pVQZ          selected for orbital group  2
 Library entry S      P aug-cc-pVQZ          selected for orbital group  2
 Library entry S      D aug-cc-pVQZ          selected for orbital group  2
 Library entry S      F aug-cc-pVQZ          selected for orbital group  2
 Library entry S      G aug-cc-pVQZ          selected for orbital group  2


 PROGRAM * SEWARD (Integral evaluation for generally contracted gaussian basis sets)     Author: Roland Lindh, 1990

 Geometry written to block  1 of record 700


 Point group  C2v 



 ATOMIC COORDINATES

 NR  ATOM    CHARGE       X              Y              Z

   1  O       8.00   -2.400976032    0.000000000    0.522001126
   2  O       8.00    2.400976032    0.000000000    0.522001126
   3  S      16.00    0.000000000    0.000000000   -1.044002252

 Bond lengths in Bohr (Angstrom)

 1-3  2.866540160  2-3  2.866540160
     ( 1.516907727)     ( 1.516907727)

 Bond angles

  1-3-2  113.77231209

 NUCLEAR CHARGE:                   32
 NUMBER OF PRIMITIVE AOS:         373
 NUMBER OF SYMMETRY AOS:          298
 NUMBER OF CONTRACTIONS:          244   (   83A1  +   70B1  +   50B2  +   41A2  )
 NUMBER OF CORE ORBITALS:           7   (    4A1  +    2B1  +    1B2  +    0A2  )
 NUMBER OF VALENCE ORBITALS:       12   (    5A1  +    4B1  +    2B2  +    1A2  )


 NUCLEAR REPULSION ENERGY  102.63417984

 Eigenvalues of metric

         1 0.857E-04 0.923E-04 0.222E-03 0.438E-03 0.823E-03 0.110E-02 0.206E-02 0.434E-02
         2 0.567E-04 0.176E-03 0.470E-03 0.641E-03 0.114E-02 0.221E-02 0.554E-02 0.855E-02
         3 0.145E-03 0.121E-02 0.811E-02 0.121E-01 0.177E-01 0.278E-01 0.335E-01 0.514E-01
         4 0.134E-02 0.103E-01 0.156E-01 0.234E-01 0.261E-01 0.473E-01 0.667E-01 0.942E-01


 Contracted 2-electron integrals neglected if value below      1.0D-11
 AO integral compression algorithm  1   Integral accuracy      1.0D-11

     592.445 MB (compressed) written to integral file ( 47.3%)

     Node minimum: 59.507 MB, node maximum: 98.042 MB


 NUMBER OF SORTED TWO-ELECTRON INTEGRALS:   14187887.     BUFFER LENGTH:  32768
 NUMBER OF SEGMENTS:   1  SEGMENT LENGTH:   14187887      RECORD LENGTH: 524288

 Memory used in sort:      14.74 MW

 SORT1 READ   156497522. AND WROTE    12731728. INTEGRALS IN     37 RECORDS. CPU TIME:     6.44 SEC, REAL TIME:     7.38 SEC
 SORT2 READ   102022774. AND WROTE   113626360. INTEGRALS IN   2056 RECORDS. CPU TIME:     2.80 SEC, REAL TIME:     3.24 SEC

 Node minimum:    14169446.  Node maximum:    14239011. integrals

 OPERATOR DM      FOR CENTER  0  COORDINATES:    0.000000    0.000000    0.000000


 **********************************************************************************************************************************
 DATASETS  * FILE   NREC   LENGTH (MB)   RECORD NAMES
              1      18       30.66       500      610      700      900      950      970     1001      129      960     1100   
                                          VAR    BASINP    GEOM    SYMINP    ZMAT    AOBASIS   BASIS     P2S    ABASIS      S 
                                         1400     1410     1200     1210     1080     1600     1650     1700   
                                           T        V       H0       H01     AOSYM     SMH    MOLCAS    OPER   

              2       7       15.14       500      610      700     1000      520     2100     1001   
                                          VAR    BASINP    GEOM     BASIS   MCVARS     RHF     BASIS   

 PROGRAMS   *        TOTAL       INT  UCCSD(T)    HF-SCF       INT      FILE
 CPU TIMES  *        36.88     14.62     18.85      0.75      2.35      0.02
 REAL TIME  *        46.17 SEC
 DISK USED  *       111.38 MB (local),        2.70 GB (total)
 SF USED    *       184.02 MB
 GA USED    *         0.00 MB       (max)       0.00 MB       (current)
 **********************************************************************************************************************************


 PROGRAM * RHF-SCF (OPEN SHELL)       Authors: W. Meyer, H.-J. Werner


 NUMBER OF ELECTRONS:      17+   16-    SPACE SYMMETRY=3    SPIN SYMMETRY: Doublet 
 CONVERGENCE THRESHOLDS:    1.00E-05 (Density)    1.00E-07 (Energy)
 MAX. NUMBER OF ITERATIONS:       60
 INTERPOLATION TYPE:            DIIS
 INTERPOLATION STEPS:              2 (START)      1 (STEP)
 LEVEL SHIFTS:                 -0.60 (CLOSED) -0.30 (OPEN) 

 Number of closed-shell orbitals:   16 (   8   5   2   1 )
 Number of open-shell orbitals:      1 (   0   0   1   0 )


 Molecular orbitals read from record     2100.2  Type=RHF/CANONICAL (state 1.3)

 Present basis size:       83   70   50   41
 Previous basis size:      51   42   28   21
 Previous occupation:       8    5    3    1
 Previous closed-shells:    8    5    2    1
 Previous core-orbitals:    4    2    1    0
 Present occupation:        8    5    3    1
 Present closed-shells:     8    5    2    1
 Present core-orbitals:     4    2    1    0
 Wavefunction symmetry:    3   Doublet 

 Orbital overlap <old|new>:  < 1.1| 1.1> = 1.000000   < 2.1| 2.1> = 0.999999   < 3.1| 3.1> = 1.000000   < 4.1| 4.1> = 0.999998
                             < 1.2| 1.2> = 0.999999   < 2.2| 2.2> = 0.999999   < 1.3| 1.3> = 0.999998   < 5.1| 5.1> = 0.999993
                             < 6.1| 6.1> = 0.999994   < 7.1| 7.1> = 0.999979   < 8.1| 8.1> = 0.999966   < 3.2| 3.2> = 0.999991
                             < 4.2| 4.2> = 0.999980   < 5.2| 5.2> = 0.999970   < 2.3| 2.3> = 0.999973   < 1.4| 1.4> = 0.999964
                             < 3.3| 3.3> = 0.999963


 Molecular orbital dump at record        2101.2

 ITERATION    DDIFF          GRAD             ENERGY        2-EL.EN.            DIPOLE MOMENTS         DIIS   ORB.
    1      0.000D+00      0.000D+00      -547.33386896    637.593614    0.00000    0.00000   -0.50881    0    start
    2      0.000D+00      0.340D-02      -547.33766688    637.738192    0.00000    0.00000   -0.50262    1    diag,B
    3      0.200D-01      0.479D-03      -547.33781452    637.721935    0.00000    0.00000   -0.50038    2    diag,B
    4      0.232D-02      0.783D-04      -547.33782700    637.715328    0.00000    0.00000   -0.49877    3    diag,B
    5      0.469D-03      0.300D-04      -547.33783049    637.709745    0.00000    0.00000   -0.49789    4    diag,B
    6      0.207D-03      0.125D-04      -547.33783130    637.707415    0.00000    0.00000   -0.49767    5    diag,B
    7      0.617D-04      0.519D-05      -547.33783144    637.706979    0.00000    0.00000   -0.49786    6    diag,B
    8      0.162D-04      0.209D-05      -547.33783146    637.706801    0.00000    0.00000   -0.49797    7    orth
    9      0.540D-05      0.980D-06      -547.33783146    637.706862    0.00000    0.00000   -0.49802    0    orth

 Final alpha occupancy:   8   5   3   1
 Final beta  occupancy:   8   5   2   1

 !RHF STATE  1.3 Energy              -547.337831462246
 Nuclear energy                       102.63417984
 One-electron energy                 -968.82544250
 Two-electron energy                  318.85343119
 Virial quotient                       -1.00061574
 !RHF STATE  1.3 Dipole moment          0.00000000     0.00000000    -0.49802430
 Dipole moment /Debye                   0.00000000     0.00000000    -1.26576860

 Orbital energies:

         1.1          2.1          3.1          4.1          5.1          6.1          7.1          8.1          9.1         10.1
    -91.854955   -20.315411    -8.837309    -6.517808    -1.156032    -0.597015    -0.377672    -0.209121     0.190433     0.202916

         1.2          2.2          3.2          4.2          5.2          6.2          7.2
    -20.315431    -6.518991    -1.064379    -0.386479    -0.235065     0.190949     0.271190

         1.3          2.3          3.3          4.3          5.3
     -6.518869    -0.360552    -0.095058     0.201212     0.316820

         1.4          2.4          3.4
     -0.246687     0.296383     0.461809


 HOMO      3.3    -0.095058 =      -2.5867eV
 LUMO      9.1     0.190433 =       5.1820eV
 LUMO-HOMO         0.285491 =       7.7686eV


 **********************************************************************************************************************************
 DATASETS  * FILE   NREC   LENGTH (MB)   RECORD NAMES
              1      18       30.67       500      610      700      900      950      970     1001      129      960     1100   
                                          VAR    BASINP    GEOM    SYMINP    ZMAT    AOBASIS   BASIS     P2S    ABASIS      S 
                                         1400     1410     1200     1210     1080     1600     1650     1700   
                                           T        V       H0       H01     AOSYM     SMH    MOLCAS    OPER   

              2       8       18.09       500      610      700     1000      520     2100     1001     2101   
                                          VAR    BASINP    GEOM     BASIS   MCVARS     RHF     BASIS     RHF  

 PROGRAMS   *        TOTAL    HF-SCF       INT  UCCSD(T)    HF-SCF       INT      FILE
 CPU TIMES  *        38.04      1.16     14.62     18.85      0.75      2.35      0.02
 REAL TIME  *        47.73 SEC
 DISK USED  *       111.38 MB (local),        2.70 GB (total)
 SF USED    *       184.02 MB
 GA USED    *         0.00 MB       (max)       0.00 MB       (current)
 **********************************************************************************************************************************


 PROGRAM * CCSD (Unrestricted open-shell coupled cluster)     Authors: C. Hampel, H.-J. Werner, 1991, M. Deegan, P.J. Knowles, 1992


 Convergence thresholds:  THRVAR = 1.00D-08  THRDEN = 1.00D-06

 CCSD(T)     terms to be evaluated (factor= 1.000)


 Number of core orbitals:           7 (   4   2   1   0 )
 Number of closed-shell orbitals:   9 (   4   3   1   1 )
 Number of active  orbitals:        1 (   0   0   1   0 )
 Number of external orbitals:     227 (  75  65  47  40 )

 Memory could be reduced to 55.50 Mwords without degradation in triples

 Number of N-1 electron functions:              19
 Number of N-2 electron functions:             171
 Number of singly external CSFs:              1214
 Number of doubly external CSFs:           1710924
 Total number of CSFs:                     1712138

 Molecular orbitals read from record     2101.2  Type=RHF/CANONICAL (state 1.3)

 Integral transformation finished. Total CPU:   3.83 sec, npass=  1  Memory used:   6.40 MW

 Starting RMP2 calculation, locsing= 0

 ITER.      SQ.NORM     CORR.ENERGY   TOTAL ENERGY   ENERGY CHANGE        DEN1      VAR(S)    VAR(P)  DIIS     TIME
   1      1.21069626    -0.73167731  -548.06950877    -0.73167731    -0.00242609  0.37D-04  0.10D-02  1  1     4.39
   2      1.21326358    -0.73429157  -548.07212303    -0.00261426    -0.00000570  0.44D-06  0.31D-05  2  2     4.78
   3      1.21336983    -0.73434829  -548.07217976    -0.00005673    -0.00000003  0.97D-08  0.14D-07  3  3     5.42
   4      1.21337213    -0.73434847  -548.07217993    -0.00000017    -0.00000000  0.36D-09  0.67D-10  4  4     6.05

 Norm of t1 vector:      0.05835684      S-energy:    -0.00414635      T1 diagnostic:  0.00033725
 Norm of t2 vector:      0.45822113      P-energy:    -0.73020212
                                         Alpha-Beta:  -0.53952446
                                         Alpha-Alpha: -0.09589427
                                         Beta-Beta:   -0.09478338

 Spin contamination <S**2-Sz**2-Sz>     0.00229243
  Reference energy                   -547.337831462248
  RHF-RMP2 correlation energy          -0.734348466297
 !RHF-RMP2 energy                    -548.072179928545

 Starting UCCSD calculation

 ITER.      SQ.NORM     CORR.ENERGY   TOTAL ENERGY   ENERGY CHANGE        DEN1      VAR(S)    VAR(P)  DIIS     TIME
   1      1.19134470    -0.69780058  -548.03563205    -0.69780058    -0.02250767  0.69D-02  0.40D-02  1  1     9.75
   2      1.20934170    -0.71630685  -548.05413831    -0.01850627    -0.00234544  0.33D-03  0.79D-03  2  2    13.51
   3      1.21862901    -0.71914207  -548.05697354    -0.00283522    -0.00037157  0.30D-03  0.44D-04  3  3    17.65
   4      1.22380448    -0.72064420  -548.05847566    -0.00150212    -0.00008521  0.57D-04  0.14D-04  4  4    20.93
   5      1.22726904    -0.72109736  -548.05892883    -0.00045317    -0.00001588  0.13D-04  0.21D-05  5  5    24.65
   6      1.22886260    -0.72126487  -548.05909633    -0.00016750    -0.00000212  0.13D-05  0.48D-06  6  6    28.79
   7      1.22925197    -0.72129319  -548.05912465    -0.00002833    -0.00000035  0.24D-06  0.83D-07  6  2    32.34
   8      1.22932662    -0.72129791  -548.05912937    -0.00000472    -0.00000008  0.68D-07  0.17D-07  6  1    35.91
   9      1.22934807    -0.72129914  -548.05913060    -0.00000123    -0.00000002  0.24D-07  0.40D-08  6  3    39.45
  10      1.22935476    -0.72130004  -548.05913150    -0.00000090    -0.00000001  0.79D-08  0.14D-08  6  4    43.09

 Norm of t1 vector:      0.15365050      S-energy:    -0.00444272      T1 diagnostic:  0.02274169
                                                                       D1 diagnostic:  0.06121994
 Norm of t2 vector:      0.45359264      P-energy:    -0.71685732
                                         Alpha-Beta:  -0.55199926
                                         Alpha-Alpha: -0.08363874
                                         Beta-Beta:   -0.08121932

 Singles amplitudes (print threshold =  0.500E-01):

         I         SYM. A    A   T(IA) [Beta-Beta]

         8         3         1      0.08657807

 Spin contamination <S**2-Sz**2-Sz>     0.00361586

 Memory could be reduced to 57.67 Mwords without degradation in triples


 RESULTS
 =======

  Reference energy                   -547.337831462248
  UCCSD singles energy                 -0.004442719503
  UCCSD pair energy                    -0.716857321976
  UCCSD correlation energy             -0.721300041479
  Triples (T) contribution             -0.038201589763
  Total correlation energy             -0.759501631242

  RHF-UCCSD energy                   -548.059131503727
  RHF-UCCSD[T] energy                -548.099851736386
  RHF-UCCSD-T energy                 -548.096484465963
 !RHF-UCCSD(T) energy                -548.097333093490

 Program statistics:

 Available memory in ccsd:               149999084
 Min. memory needed in ccsd:               5049143
 Max. memory used in ccsd:                 7140337
 Max. memory used in cckext:               6025983 (10 integral passes)
 Max. memory used in cckint:               6402767 ( 1 integral passes)



 **********************************************************************************************************************************
 DATASETS  * FILE   NREC   LENGTH (MB)   RECORD NAMES
              1      18       30.67       500      610      700      900      950      970     1001      129      960     1100   
                                          VAR    BASINP    GEOM    SYMINP    ZMAT    AOBASIS   BASIS     P2S    ABASIS      S 
                                         1400     1410     1200     1210     1080     1600     1650     1700   
                                           T        V       H0       H01     AOSYM     SMH    MOLCAS    OPER   

              2       8       18.09       500      610      700     1000      520     2100     1001     2101   
                                          VAR    BASINP    GEOM     BASIS   MCVARS     RHF     BASIS     RHF  

 PROGRAMS   *        TOTAL  UCCSD(T)    HF-SCF       INT  UCCSD(T)    HF-SCF       INT      FILE
 CPU TIMES  *       138.03     99.98      1.16     14.62     18.85      0.75      2.35      0.02
 REAL TIME  *       165.60 SEC
 DISK USED  *       264.28 MB (local),        3.92 GB (total)
 SF USED    *       910.12 MB
 GA USED    *         0.00 MB       (max)       0.00 MB       (current)
 **********************************************************************************************************************************
 SETTING EHF(2)         =      -547.33783146  AU                              
 SETTING ECOR_CCSDT(2)  =        -0.75950163  AU                              
 SETTING ECOR_MP2(2)    =        -0.73434847  AU                              


 Extrapolating energy using  ECORR and basissets AVTZ AVQZ

 *** Long output written to logfile /home/vallet/John-methylsulfonyl/Units/SO2-m1/optg-freq-pbe0/geom-2b2/CCSD-T/SO2-m1.CCSD-T-CBS.log ***


 Extrapolating reference energy using E(n)=ECBS+A*(l+1)*exp(-9*sqrt(l))

 E(CBS)=  -547.34018544  A= 0.309124D+05

 Extrapolating correlation energy using function (n+ 0.5)^{-X} with X= 4.0

 L=3  E=    -0.71570844  EFIT=    -0.71570844
 L=4  E=    -0.75950163  EFIT=    -0.75950163

 E(CBS)=    -0.78477746  Coefficients:   10.3647

 BASIS           EREF            ECORR           ETOT
 AVTZ       -547.31918581     -0.71570844   -548.03489424
 AVQZ       -547.33783146     -0.75950163   -548.09733309
 CBS        -547.34018544     -0.78477746   -548.12496290



 **********************************************************************************************************************************
 DATASETS  * FILE   NREC   LENGTH (MB)   RECORD NAMES
              1      18       30.67       500      610      700      900      950      970     1001      129      960     1100   
                                          VAR    BASINP    GEOM    SYMINP    ZMAT    AOBASIS   BASIS     P2S    ABASIS      S 
                                         1400     1410     1200     1210     1080     1600     1650     1700   
                                           T        V       H0       H01     AOSYM     SMH    MOLCAS    OPER   

              2       8       18.09       500      610      700     1000      520     2100     1001     2101   
                                          VAR    BASINP    GEOM     BASIS   MCVARS     RHF     BASIS     RHF  

 PROGRAMS   *        TOTAL  EXTRAPOL  UCCSD(T)    HF-SCF       INT  UCCSD(T)    HF-SCF       INT      FILE
 CPU TIMES  *       138.04      0.00     99.98      1.16     14.62     18.85      0.75      2.35      0.02
 REAL TIME  *       165.61 SEC
 DISK USED  *       264.28 MB (local),        3.92 GB (total)
 SF USED    *       910.12 MB
 GA USED    *         0.00 MB       (max)       0.00 MB       (current)
 **********************************************************************************************************************************


 Extrapolating energy using  ECORR and basissets AVTZ AVQZ

 Extrapolating reference energy using E(n)=ECBS+A*(l+1)*exp(-9*sqrt(l))

 E(CBS)=  -547.34018544  A= 0.309124D+05

 Extrapolating correlation energy using function (n+ 0.5)^{-X} with X= 4.0

 L=3  E=    -0.68749832  EFIT=    -0.68749832
 L=4  E=    -0.73434847  EFIT=    -0.73434847

 E(CBS)=    -0.76138866  Coefficients:   11.0882

 BASIS           EREF            ECORR           ETOT
 AVTZ       -547.31918581     -0.68749832   -548.00668413
 AVQZ       -547.33783146     -0.73434847   -548.07217993
 CBS        -547.34018544     -0.76138866   -548.10157410



 **********************************************************************************************************************************
 DATASETS  * FILE   NREC   LENGTH (MB)   RECORD NAMES
              1      18       30.67       500      610      700      900      950      970     1001      129      960     1100   
                                          VAR    BASINP    GEOM    SYMINP    ZMAT    AOBASIS   BASIS     P2S    ABASIS      S 
                                         1400     1410     1200     1210     1080     1600     1650     1700   
                                           T        V       H0       H01     AOSYM     SMH    MOLCAS    OPER   

              2       8       18.09       500      610      700     1000      520     2100     1001     2101   
                                          VAR    BASINP    GEOM     BASIS   MCVARS     RHF     BASIS     RHF  

 PROGRAMS   *        TOTAL  EXTRAPOLEXTRAPOLAT  UCCSD(T)    HF-SCF       INT  UCCSD(T)    HF-SCF       INT      FILE
 CPU TIMES  *       138.05      0.00      0.00     99.98      1.16     14.62     18.85      0.75      2.35      0.02
 REAL TIME  *       165.62 SEC
 DISK USED  *       264.28 MB (local),        3.92 GB (total)
 SF USED    *       910.12 MB
 GA USED    *         0.00 MB       (max)       0.00 MB       (current)
 **********************************************************************************************************************************
 Molecular orbitals read from record     2101.2  Type=RHF/CANONICAL (state 1.3)
 Occupation numbers read from record     2101.2  Type=RHF/RHF (state 1.3)
 Orbital energies read from record       2101.2  Type=RHF/CANONICAL (state 1.3)
 Redundancy group numbers read from rec  2101.2  Type=RHF/RHF (state 1.3)

 UCCSD(T)/aug-cc-pVTZ:aug-cc-pVQZ energy=   -548.101574095104

     EXTRAPOLATE        UCCSD(T)          HF-SCF        UCCSD(T)          HF-SCF
   -548.09733309   -548.09733309   -547.33783146   -548.03489424   -547.31918581
 **********************************************************************************************************************************
 Molpro calculation terminated
