   This run of MOLCAS is using the pymolcas driver

                             OPE
                             OPE          NMOL  CASOP  ENMOLC A   SO
                 OPE        NMOLC        AS  OP EN  MO LC     AS  OP
                OPENM       OL CA        SO  PE NM  OL CA     SOP EN
                OP EN      MO   LC       AS  OP ENMOL  CASO   PENMOL
                OP  EN     MO   LC       AS  OP EN     MO     LC ASO
               OP   E  NMOL  C  AS       OP  EN MO     LC     AS  OP
               OP  E   NMO   LC AS        OPEN  MO     LCASOP EN   M
               O  PEN   MO  LCA  SO
            OPE   NMO   L   CAS    OP
        OPENMOL  CASOP     ENMOL   CASOPE
     OPENMOLCA   SOPENMOLCASOPEN   MOLCASOPE
    OPENMOLCAS   OP           EN   MOL    CAS
    OPENMOLCAS       OP  ENM        O     LCA
    OPENMOLCAS    OPEN  MOLCASO     P  E  NMO
    OPENMOLCAS     OP               E  N  MOL
    OPENMOLCA   SO           PENM   O  L  CAS    OPEN    MO    LCAS
    OPENMOLCA   SOP           ENM   O  L  CAS   OP  EN  MOLC  AS   O
    OPENMOLCA   SOPE           NM      O  LCA   S      OP  EN MO
    OPENMOLC                AS         O  PEN   M      OL  CA  SOPE
    OPENMO        LCASOPE  NMOL        C  ASO   P      ENMOLC     AS
    OPE     NMO      LCA  SO     P     E   NM   OL  CA SO  PE N   MO
          OPENMOLCA            SOPE   NMO        LCAS  O    P  ENMO
     OPENMOLCASOPENMOLCASOPENMOLCASOPENMOLCA
        OPENMOLCASOPENMOLCASOPENMOLCASOPE
            OPENMOLCASOPENMOLCASOPENM
               OPENMOLCASOPENMOLCA        version: 18.09
                   OPENMOLCASO
                       OPE                tag: 259-g52797e1-dirty

 OpenMolcas is free software; you can redistribute it and/or modify it
 under the terms of the GNU Lesser General Public License version 2.1.
 OpenMolcas is distributed in the hope that it will be useful, but it
 is provided "as is" and without any express or implied warranties.
 For more details see the full text of the license in the file
 LICENSE or in <http://www.gnu.org/licenses/>.

                 Copyright (C) The OpenMolcas Authors
           For the author list and the recommended citation,
                   consult the file CONTRIBUTORS.md

           *************************************************
           * pymolcas version py2.05                       *
           *   build e639e37c9a57315123c35f99e509df06      *
           *   (after the EMIL interpreter by V. Veryazov) *
           *************************************************

configuration info
------------------
C Compiler ID: Intel
C flags: -I/share/apps/fftw/3.3.8/include -std=gnu99 -mcmodel=large -qopenmp
Fortran Compiler ID: Intel
Fortran flags: -fpp -mcmodel=large -i8 -r8 -heap-arrays -qopenmp
Definitions: _MOLCAS_;_I8_;_LINUX_;_MKL_;_FDE_
Parallel: OFF (GA=OFF)


   --------------------------------------------------------------------------------------------------------------------------------
  |
  |           Project: UO2_C6H5SO2_C6H5SO2-m1-doublet.rassi-SO-casscf-xmscaspt2.VTZP
  |    Submitted from: /home/vallet/John-sulfinate/U-complexes/UO2_C6H5SO2_C6H5SO2-m1/optg-freq-pbe0/SO-XMS
  |      Scratch area: /state/partition2/vallet/656843.phlam-s-sakura/UO2_C6H5SO2_C6H5SO2-m1-doublet.rassi-SO-casscf-xmscaspt2.VTZP
  |   Save outputs to: /home/vallet/John-sulfinate/U-complexes/UO2_C6H5SO2_C6H5SO2-m1/optg-freq-pbe0/SO-XMS
  |            Molcas: /home/pcmt/OpenMolcas/OpenMolcas-20190114
  |
  | Scratch area is empty
  |
  |    MOLCAS_DRIVER = /home/pcmt/OpenMolcas/OpenMolcas-20190114/sbin/pymolcas
  |   MOLCAS_LICENSE = /home/pcmt/molcas/license
  |    MOLCAS_MOLDEN = ON
  |    MOLCAS_NPROCS = 1
  |    MOLCAS_SOURCE = /home/pcmt/OpenMolcas/OpenMolcas-20190114
  | MOLCAS_STRUCTURE = 0
  |
   --------------------------------------------------------------------------------------------------------------------------------

++ ---------   Input file   ---------

&GATEWAY
   COORD=$HomeDir/UO2_C6H5SO2_C6H5SO2-m1.pbe0.optg.xyz
   BASIS=ANO-RCC-VTZP
   Group=Nosym
   ANGM=0.0 0.0 0.0
   RICD

>>> COPY $Project.RunFile $HomeDir

&SEWARD

>>> COPY $HomeDir/UO2_C6H5SO2_C6H5SO2-m1-doublet.casscf.MB.RunFile RUNFIL1

>>> COPY $Project.RunFile RUNFIL2

>>> COPY $HomeDir/UO2_C6H5SO2_C6H5SO2-m1-doublet.casscf.MB.RasOrb_doublets INPORB

&EXPBAS

>>> COPY $Project.ExpOrb $HomeDir/$Project.ExpOrb_doublets

>>> COPY $HomeDir/$Project.ExpOrb_doublets INPORB

&RASSCF
   Spin=2
   Symmetry=1
   Nactel=1 0 0
   Inactive=127
   Ras2=4
   CIRoots=4 4 1
   Lumorb

>>> COPY $Project.RasOrb $HomeDir/$Project.RasOrb_doublets

>>> COPY $Project.JobIph $HomeDir/$Project.JobIph_doublets

&CASPT2
    IPEA=0.0
    XMUL= ALL
    THRESHOLDS= 1.0D-09 1.0D-07
    MAXITER=150
    CONVERGENCE=1.0D-6
    IMAG=0.1

>>> COPY $Project.JobMix $HomeDir/$Project.JobMix_doublets

>>> COPY $HomeDir/$Project.JobIph_doublets JOB001

&RASSI
    EJob
    SPINorbit

>>> COPY $HomeDir/$Project.JobMix_doublets JOB001

&RASSI
    EJob
    SPINorbit

-- ----------------------------------

--- Start Module: gateway at Tue Dec 24 15:31:32 2019 ---
 
()()()()()()()()()()()()()()()()()()()()()()()()()()()()()()()()()()()()()()()()()()()()()()()()()()

                                              &GATEWAY

                                   only a single process is used
                       available to each process: 32 GB of memory, 8 threads
()()()()()()()()()()()()()()()()()()()()()()()()()()()()()()()()()()()()()()()()()()()()()()()()()()
 
 
++    Symmetry information:
      ---------------------
 
                    Character Table for C1 
 
                             E  
                    a        1  x, y, xy, Rz, z, xz, Ry, yz, Rx, I
--
 
 
++    Basis set information:
      ----------------------
 
 
      Basis set label: C.ANO-RCC...4S3P2D1F.
 
      Electronic valence basis set:
      ------------------
      Associated Effective Charge   6.000000 au
      Associated Actual Charge      6.000000 au
      Nuclear Model: Point charge
 
      Shell  nPrim  nBasis  Cartesian Spherical Contaminant
         s      14       4        X                  
         p       9       3        X                  
         d       4       2                 X         
         f       3       1                 X         
 
 
      Basis set label: S.ANO-RCC...5S4P2D1F.
 
      Electronic valence basis set:
      ------------------
      Associated Effective Charge  16.000000 au
      Associated Actual Charge     16.000000 au
      Nuclear Model: Point charge
 
      Shell  nPrim  nBasis  Cartesian Spherical Contaminant
         s      17       5        X                  
         p      12       4        X                  
         d       5       2                 X         
         f       4       1                 X         
 
 
      Basis set label: O.ANO-RCC...4S3P2D1F.
 
      Electronic valence basis set:
      ------------------
      Associated Effective Charge   8.000000 au
      Associated Actual Charge      8.000000 au
      Nuclear Model: Point charge
 
      Shell  nPrim  nBasis  Cartesian Spherical Contaminant
         s      14       4        X                  
         p       9       3        X                  
         d       4       2                 X         
         f       3       1                 X         
 
 
      Basis set label: U.ANO-RCC...9S8P6D4F2G1H.
 
      Electronic valence basis set:
      ------------------
      Associated Effective Charge  92.000000 au
      Associated Actual Charge     92.000000 au
      Nuclear Model: Point charge
 
      Shell  nPrim  nBasis  Cartesian Spherical Contaminant
         s      26       9        X                  
         p      23       8        X                  
         d      17       6                 X         
         f      13       4                 X         
         g       5       2                 X         
         h       3       1                 X         
 
 
      Basis set label: O.ANO-RCC...4S3P2D1F.
 
      Electronic valence basis set:
      ------------------
      Associated Effective Charge   8.000000 au
      Associated Actual Charge      8.000000 au
      Nuclear Model: Point charge
 
      Shell  nPrim  nBasis  Cartesian Spherical Contaminant
         s      14       4        X                  
         p       9       3        X                  
         d       4       2                 X         
         f       3       1                 X         
 
 
      Basis set label: S.ANO-RCC...5S4P2D1F.
 
      Electronic valence basis set:
      ------------------
      Associated Effective Charge  16.000000 au
      Associated Actual Charge     16.000000 au
      Nuclear Model: Point charge
 
      Shell  nPrim  nBasis  Cartesian Spherical Contaminant
         s      17       5        X                  
         p      12       4        X                  
         d       5       2                 X         
         f       4       1                 X         
 
 
      Basis set label: C.ANO-RCC...4S3P2D1F.
 
      Electronic valence basis set:
      ------------------
      Associated Effective Charge   6.000000 au
      Associated Actual Charge      6.000000 au
      Nuclear Model: Point charge
 
      Shell  nPrim  nBasis  Cartesian Spherical Contaminant
         s      14       4        X                  
         p       9       3        X                  
         d       4       2                 X         
         f       3       1                 X         
 
 
      Basis set label: O.ANO-RCC...4S3P2D1F.
 
      Electronic valence basis set:
      ------------------
      Associated Effective Charge   8.000000 au
      Associated Actual Charge      8.000000 au
      Nuclear Model: Point charge
 
      Shell  nPrim  nBasis  Cartesian Spherical Contaminant
         s      14       4        X                  
         p       9       3        X                  
         d       4       2                 X         
         f       3       1                 X         
 
 
      Basis set label: C.ANO-RCC...4S3P2D1F.
 
      Electronic valence basis set:
      ------------------
      Associated Effective Charge   6.000000 au
      Associated Actual Charge      6.000000 au
      Nuclear Model: Point charge
 
      Shell  nPrim  nBasis  Cartesian Spherical Contaminant
         s      14       4        X                  
         p       9       3        X                  
         d       4       2                 X         
         f       3       1                 X         
 
 
      Basis set label: H.ANO-RCC...3S2P1D.
 
      Electronic valence basis set:
      ------------------
      Associated Effective Charge   1.000000 au
      Associated Actual Charge      1.000000 au
      Nuclear Model: Point charge
 
      Shell  nPrim  nBasis  Cartesian Spherical Contaminant
         s       8       3        X                  
         p       4       2        X                  
         d       3       1                 X         
 
 
      Basis set label: C.ANO-RCC...4S3P2D1F.
 
      Electronic valence basis set:
      ------------------
      Associated Effective Charge   6.000000 au
      Associated Actual Charge      6.000000 au
      Nuclear Model: Point charge
 
      Shell  nPrim  nBasis  Cartesian Spherical Contaminant
         s      14       4        X                  
         p       9       3        X                  
         d       4       2                 X         
         f       3       1                 X         
 
 
      Basis set label: H.ANO-RCC...3S2P1D.
 
      Electronic valence basis set:
      ------------------
      Associated Effective Charge   1.000000 au
      Associated Actual Charge      1.000000 au
      Nuclear Model: Point charge
 
      Shell  nPrim  nBasis  Cartesian Spherical Contaminant
         s       8       3        X                  
         p       4       2        X                  
         d       3       1                 X         
--
 
 
++    Molecular structure info:
      -------------------------
 
                    ************************************************ 
                    **** Cartesian Coordinates / Bohr, Angstrom **** 
                    ************************************************ 
 
     Center  Label                x              y              z                     x              y              z
        1      C1               7.947387       0.733988      -0.012861              4.205576       0.388410      -0.006806
        2      S2               5.205606       2.795631      -0.007915              2.754688       1.479384      -0.004189
        3      O3               3.723635       1.876746      -2.318789              1.970463       0.993131      -1.227050
        4      U4               0.000174       0.000828      -0.009886              0.000092       0.000438      -0.005232
        5      O5              -3.727077      -1.876920       2.293343             -1.972284      -0.993223       1.213585
        6      S6              -5.204797      -2.794830      -0.020545             -2.754260      -1.478960      -0.010872
        7      C7              -7.946922      -0.733628      -0.019956             -4.205330      -0.388219      -0.010560
        8      O8               3.726490       1.868966       2.301728              1.971973       0.989014       1.218022
        9      O9              -3.721795      -1.866624      -2.327167             -1.969489      -0.987775      -1.231484
       10      O10             -1.539453       3.033318      -0.004694             -0.814643       1.605163      -0.002484
       11      O11              1.539739      -3.031686      -0.013644              0.814795      -1.604299      -0.007220
       12      C12            -10.315253      -1.844014      -0.024934             -5.458597      -0.975810      -0.013194
       13      C13            -12.463461      -0.332025      -0.025489             -6.595380      -0.175700      -0.013488
       14      C14            -12.212453       2.275497      -0.020982             -6.462552       1.204141      -0.011103
       15      C15             -9.821993       3.372442      -0.015831             -5.197575       1.784619      -0.008378
       16      C16             -7.672304       1.878075      -0.015277             -4.060008       0.993834      -0.008084
       17      H17            -10.473425      -3.889123      -0.028487             -5.542298      -2.058035      -0.015075
       18      H18            -14.324522      -1.189148      -0.029458             -7.580210      -0.629270      -0.015589
       19      H19            -13.882209       3.463350      -0.021494             -7.346149       1.832726      -0.011374
       20      H20             -9.635190       5.412811      -0.012306             -5.098723       2.864336      -0.006512
       21      H21             -5.790929       2.699211      -0.011496             -3.064427       1.428361      -0.006084
       22      C22             10.315834       1.844163      -0.017277              5.458904       0.975889      -0.009143
       23      C23             12.463901       0.331982      -0.021421              6.595612       0.175677      -0.011335
       24      C24             12.212651      -2.275524      -0.020983              6.462657      -1.204155      -0.011104
       25      C25              9.822090      -3.372245      -0.016430              5.197626      -1.784515      -0.008695
       26      C26              7.672538      -1.877684      -0.012322              4.060132      -0.993628      -0.006521
       27      H27             10.474211       3.889258      -0.017473              5.542714       2.058107      -0.009246
       28      H28             14.325035       1.188949      -0.024946              7.580482       0.629165      -0.013201
       29      H29             13.882297      -3.463528      -0.024234              7.346195      -1.832820      -0.012824
       30      H30              9.635109      -5.412601      -0.016161              5.098680      -2.864225      -0.008552
       31      H31              5.791083      -2.698646      -0.009020              3.064509      -1.428062      -0.004773
 
                    ************************************************* 
                    **** InterNuclear Distances / Bohr, Angstrom **** 
                    ************************************************* 
 
     Atom centers         Bohr        Angstrom
   20 H20      15 C15     2.048906        1.084234
   30 H30      25 C25   
   18 H18      13 C13     2.048956        1.084261
   28 H28      23 C23   
   19 H19      14 C14     2.049166        1.084372
   29 H29      24 C24   
   17 H17      12 C12     2.051218        1.085458
   27 H27      22 C22   
   21 H21      16 C16     2.052767        1.086277
   31 H31      26 C26   
   12 C12       7 C7      2.615717        1.384178
   22 C22       1 C1    
   16 C16      15 C15     2.618071        1.385423
   26 C26      25 C25   
   14 C14      13 C13     2.619579        1.386221
   24 C24      23 C23   
   16 C16       7 C7      2.626095        1.389670
   26 C26       1 C1    
   13 C13      12 C12     2.626957        1.390126
   23 C23      22 C22   
   15 C15      14 C14     2.630134        1.391807
   25 C25      24 C24   
    6 S6        5 O5      2.894874        1.531901
    3 O3        2 S2      2.894948        1.531941
    8 O8        2 S2      2.894987        1.531961
    9 O9        6 S6      2.895059        1.531999
   10 O10       4 U4      3.400943        1.799701
   11 O11       4 U4    
    2 S2        1 C1      3.430416        1.815298
    7 C7        6 S6    
   17 H17       7 C7      4.042330        2.139109
   27 H27       1 C1      4.042350        2.139119
   20 H20      16 C16     4.043178        2.139558
   30 H30      26 C26   
   19 H19      13 C13     4.051879        2.144162
   29 H29      23 C23   
   31 H31       1 C1      4.053719        2.145136
   21 H21       7 C7      4.053735        2.145144
   18 H18      14 C14     4.057668        2.147225
   28 H28      24 C24   
   20 H20      14 C14     4.060173        2.148551
   30 H30      24 C24   
   19 H19      15 C15     4.061238        2.149115
   29 H29      25 C25   
   18 H18      12 C12     4.062395        2.149727
   28 H28      22 C22   
   27 H27      23 C23     4.075916        2.156882
   17 H17      13 C13     4.075930        2.156889
   21 H21      15 C15     4.086898        2.162693
   31 H31      25 C25   
   31 H31      11 O11     4.264372        2.256608
   21 H21      10 O10     4.264589        2.256723
   15 C15       7 C7      4.513942        2.388675
   25 C25       1 C1    
   13 C13       7 C7      4.534362        2.399481
   23 C23       1 C1      4.534378        2.399490
   14 C14      12 C12     4.535388        2.400024
   24 C24      22 C22   
   15 C15      13 C13     4.549779        2.407639
   25 C25      23 C23   
   16 C16      14 C14     4.557514        2.411732
   26 C26      24 C24   
   16 C16      12 C12     4.564995        2.415692
   26 C26      22 C22   
    8 O8        3 O3      4.620524        2.445076
    9 O9        5 O5    
   20 H20      19 H19     4.673067        2.472881
   30 H30      29 H29   
   19 H19      18 H18     4.673483        2.473100
   29 H29      28 H28     4.673495        2.473107
   28 H28      27 H27     4.703250        2.488853
   18 H18      17 H17     4.703277        2.488867
   21 H21      20 H20     4.705525        2.490057
   31 H31      30 H30     4.705543        2.490066
    9 O9        4 U4      4.765524        2.521806
    4 U4        3 O3      4.765949        2.522031
    8 O8        4 U4      4.766438        2.522291
    5 O5        4 U4      4.766885        2.522527
    9 O9        7 C7      4.945564        2.617080
    8 O8        1 C1      4.945854        2.617233
    3 O3        1 C1      4.946036        2.617330
    7 C7        5 O5      4.946267        2.617452
   22 C22       2 S2      5.198058        2.750694
   12 C12       6 S6      5.198157        2.750746
   14 C14       7 C7      5.220113        2.762365
   24 C24       1 C1      5.220125        2.762371
   25 C25      22 C22     5.239723        2.772742
   15 C15      12 C12     5.239733        2.772747
   16 C16      13 C13     5.276347        2.792122
   26 C26      23 C23   
   16 C16       6 S6      5.284379        2.796373
   26 C26       2 S2      5.284473        2.796422
   27 H27       2 S2      5.380921        2.847461
   17 H17       6 S6      5.381076        2.847543
   31 H31       8 O8      5.519527        2.920808
   21 H21       9 O9      5.521820        2.922021
   21 H21       5 O5      5.523834        2.923087
   21 H21       6 S6      5.525226        2.923824
   31 H31       2 S2      5.525384        2.923907
   31 H31       3 O3      5.526626        2.924564
--
 
 
            Nuclear Potential Energy           3967.30862931 au
 
--- Stop Module: gateway at Tue Dec 24 15:33:04 2019 /rc=_RC_ALL_IS_WELL_ ---
*** files: UO2_C6H5SO2_C6H5SO2-m1-doublet.rassi-SO-casscf-xmscaspt2.VTZP.RICDLib xmldump
    saved to directory /home/vallet/John-sulfinate/U-complexes/UO2_C6H5SO2_C6H5SO2-m1/optg-freq-pbe0/SO-XMS
--- Module gateway spent 1 minute 31 seconds ---

>>> COPY UO2_C6H5SO2_C6H5SO2-m1-doublet.rassi-SO-casscf-xmscaspt2.VTZP.RunFile /home/vallet/John-sulfinate/U-complexes/UO2_C6H5SO2_C6H5SO2-m1/optg-freq-pbe0/SO-XMS

--- Start Module: seward at Tue Dec 24 15:33:04 2019 ---
 
()()()()()()()()()()()()()()()()()()()()()()()()()()()()()()()()()()()()()()()()()()()()()()()()()()

                                              &SEWARD

                                   only a single process is used
                       available to each process: 32 GB of memory, 8 threads
()()()()()()()()()()()()()()()()()()()()()()()()()()()()()()()()()()()()()()()()()()()()()()()()()()
 
               SEWARD will generate:
                  Multipole Moment integrals up to order  2
                  Kinetic Energy integrals
                  Nuclear Attraction integrals (point charge)
                  One-Electron Hamiltonian integrals
                  Velocity integrals
                  Relativistic Douglas-Kroll-Hess integrals:
                    - Parametrization         : EXP
                    - DKH order of Hamiltonian: 2
                    - DKH order of Properties : 0
                         - multipole moment operators
                         - electric potential operators
                         - contact operators
                  Orbital angular momentum around ( 0.0000  0.0000  0.0000 )
                  Atomic mean-field integrals
                  RI decomposed two-electron repulsion integrals stored Cholesky style
                   - acCD auxiliary basis
                   - CD Threshold:   0.10E-03
 
                   Integrals are discarded if absolute value <: 0.10E-13
                   Integral cutoff threshold is set to       <: 0.10E-15
 
            Nuclear Potential Energy           3967.30862931 au
 
 
      Basis set specifications :
      Symmetry species         a  
      Basis functions          868
 
 
 Post_2Center_RI
 Detected lin. dependences in the auxiliary basis.
 # of AuxBas before l. d. removal:   7170
 # of AuxBas after  l. d. removal:   7151
 
 Sorry, Molden does not know how to handle
 functions with angular momentum larger than g
--- Stop Module: seward at Tue Dec 24 16:05:37 2019 /rc=_RC_ALL_IS_WELL_ ---
*** files: UO2_C6H5SO2_C6H5SO2-m1-doublet.rassi-SO-casscf-xmscaspt2.VTZP.GssOrb UO2_C6H5SO2_C6H5SO2-m1-doublet.rassi-SO-casscf-xmscaspt2.VTZP.guessorb.h5 xmldump
    saved to directory /home/vallet/John-sulfinate/U-complexes/UO2_C6H5SO2_C6H5SO2-m1/optg-freq-pbe0/SO-XMS
--- Module seward spent 32 minutes 32 seconds ---

>>> COPY /home/vallet/John-sulfinate/U-complexes/UO2_C6H5SO2_C6H5SO2-m1/optg-freq-pbe0/SO-XMS/UO2_C6H5SO2_C6H5SO2-m1-doublet.casscf.MB.RunFile RUNFIL1

>>> COPY UO2_C6H5SO2_C6H5SO2-m1-doublet.rassi-SO-casscf-xmscaspt2.VTZP.RunFile RUNFIL2

>>> COPY /home/vallet/John-sulfinate/U-complexes/UO2_C6H5SO2_C6H5SO2-m1/optg-freq-pbe0/SO-XMS/UO2_C6H5SO2_C6H5SO2-m1-doublet.casscf.MB.RasOrb_doublets INPORB

--- Start Module: expbas at Tue Dec 24 16:05:42 2019 ---
 
()()()()()()()()()()()()()()()()()()()()()()()()()()()()()()()()()()()()()()()()()()()()()()()()()()

                                              &EXPBAS

                                   only a single process is used
                       available to each process: 32 GB of memory, 8 threads
()()()()()()()()()()()()()()()()()()()()()()()()()()()()()()()()()()()()()()()()()()()()()()()()()()
 

 Header on input orbitals file:
* RASSCF average (pseudo-natural) orbitals

 Information from input runfile
           Number of symmetries    1
      Number of basis functions  177

 Information from expanded basis set runfile
           Number of symmetries    1
      Number of basis functions  868
 New orbitals have been built in file EXPORB
--- Stop Module: expbas at Tue Dec 24 16:05:43 2019 /rc=_RC_ALL_IS_WELL_ ---
*** files: UO2_C6H5SO2_C6H5SO2-m1-doublet.rassi-SO-casscf-xmscaspt2.VTZP.ExpOrb xmldump
    saved to directory /home/vallet/John-sulfinate/U-complexes/UO2_C6H5SO2_C6H5SO2-m1/optg-freq-pbe0/SO-XMS

>>> COPY UO2_C6H5SO2_C6H5SO2-m1-doublet.rassi-SO-casscf-xmscaspt2.VTZP.ExpOrb /home/vallet/John-sulfinate/U-complexes/UO2_C6H5SO2_C6H5SO2-m1/optg-freq-pbe0/SO-XMS/UO2_C6H5SO2_C6H5SO2-m1-doublet.rassi-SO-casscf-xmscaspt2.VTZP.ExpOrb_doublets

>>> COPY /home/vallet/John-sulfinate/U-complexes/UO2_C6H5SO2_C6H5SO2-m1/optg-freq-pbe0/SO-XMS/UO2_C6H5SO2_C6H5SO2-m1-doublet.rassi-SO-casscf-xmscaspt2.VTZP.ExpOrb_doublets INPORB

--- Start Module: rasscf at Tue Dec 24 16:05:43 2019 ---
 
()()()()()()()()()()()()()()()()()()()()()()()()()()()()()()()()()()()()()()()()()()()()()()()()()()

                                              &RASSCF

                                   only a single process is used
                       available to each process: 32 GB of memory, 8 threads
()()()()()()()()()()()()()()()()()()()()()()()()()()()()()()()()()()()()()()()()()()()()()()()()()()
 
 
      Header of the ONEINT file:
      --------------------------
      
      Integrals generated by seward 4.2.0  , Tue Dec 24 15:33:04 2019
 
 
      OrdInt status: non-squared
 
 
      Cartesian coordinates in Angstrom:
      -----------------------------------------------------
      No.  Label        X            Y            Z        
      -----------------------------------------------------
       1   C1         4.20557590   0.38840970  -0.00680600
       2   S2         2.75468820   1.47938420  -0.00418870
       3   O3         1.97046280   0.99313130  -1.22705040
       4   U4         0.00009190   0.00043800  -0.00523160
       5   O5        -1.97228420  -0.99322320   1.21358470
       6   S6        -2.75426010  -1.47896050  -0.01087200
       7   C7        -4.20533020  -0.38821930  -0.01056030
       8   O8         1.97197350   0.98901430   1.21802210
       9   O9        -1.96948890  -0.98777490  -1.23148380
      10   O10       -0.81464320   1.60516260  -0.00248420
      11   O11        0.81479460  -1.60429890  -0.00722000
      12   C12       -5.45859700  -0.97581030  -0.01319440
      13   C13       -6.59537970  -0.17569980  -0.01348820
      14   C14       -6.46255170   1.20414100  -0.01110310
      15   C15       -5.19757460   1.78461920  -0.00837760
      16   C16       -4.06000830   0.99383440  -0.00808410
      17   H17       -5.54229770  -2.05803520  -0.01507470
      18   H18       -7.58021050  -0.62927000  -0.01558860
      19   H19       -7.34614860   1.83272580  -0.01137410
      20   H20       -5.09872280   2.86433620  -0.00651200
      21   H21       -3.06442740   1.42836110  -0.00608360
      22   C22        5.45890430   0.97588890  -0.00914270
      23   C23        6.59561250   0.17567710  -0.01133530
      24   C24        6.46265670  -1.20415530  -0.01110350
      25   C25        5.19762600  -1.78451520  -0.00869450
      26   C26        4.06013240  -0.99362780  -0.00652050
      27   H27        5.54271390   2.05810650  -0.00924630
      28   H28        7.58048200   0.62916480  -0.01320090
      29   H29        7.34619500  -1.83281990  -0.01282420
      30   H30        5.09867990  -2.86422520  -0.00855190
      31   H31        3.06450920  -1.42806200  -0.00477300
      -----------------------------------------------------
      Nuclear repulsion energy = 3967.30862931
 
++    Wave function specifications:
      -----------------------------
 
      Number of closed shell electrons         254
      Number of electrons in active shells       1
      Max number of holes in RAS1 space          0
      Max nr of electrons in RAS3 space          0
      Number of inactive orbitals              127
      Number of active orbitals                  4
      Number of secondary orbitals             737
      Spin quantum number                      0.5
      State symmetry                             1
--
 
++    Orbital specifications:
      -----------------------
 
      Symmetry species                           1
                                                 a
      Frozen orbitals                            0
      Inactive orbitals                        127
      Active orbitals                            4
      RAS1 orbitals                              0
      RAS2 orbitals                              4
      RAS3 orbitals                              0
      Secondary orbitals                       737
      Deleted orbitals                           0
      Number of basis functions                868
--
 
++    CI expansion specifications:
      ----------------------------
 
      Number of CSFs                             4
      Number of determinants                     4
      Number of root(s) required                 4
      Root chosen for geometry opt.              4
      CI roots used                              1     2     3     4
      weights                                0.250 0.250 0.250 0.250
      highest root included in the CI            4
      max. size of the explicit Hamiltonian      4
--
 
++    Optimization specifications:
      ----------------------------
 
      RASSCF algorithm: LK RI/DF
      Maximum number of macro iterations       200
      Maximum number of SX iterations          100
      Threshold for RASSCF energy            0.100E-07
      Threshold for max MO rotation          0.100E+00
      Threshold for max BLB element          0.100E-03
      Level shift parameter                  0.500E+00
      Make Quasi-Newton update
--
 
      The MO-coefficients are taken from the file:
      INPORB                                                                                                                          
      Title:Basis set expanded orbital file EXPORB                                         
 
      Total molecular charge   -1.00
 
      ************************************************************************************************************************
      *                                                                                                                      *
      *                                            Wave function control section                                             *
      *                                                                                                                      *
      ************************************************************************************************************************
 
 
                                         RASSCF iterations: Energy and convergence statistics
                                         ----------------------------------------------------
 
      Iter CI   SX   CI       RASSCF       Energy    max ROT     max BLB   max BLB  Level Ln srch  Step   QN   Walltime
          iter iter root      energy       change     param      element    value   shift minimum  type update hh:mm:ss
 Nr of preliminary CI iterations:   1
      Total energies have been shifted. Add               -29000.00 au
        1   1   18    0  -655.84206165    0.00E+00   0.31E-01  115 271 1  0.20E+00*  0.58   0.00    SX    NO    0:39:30
        2   1   22    0  -657.07102313   -0.12E+01* -0.26E-01  115 271 1  0.91E-01*  0.58   0.00    SX    NO    0:15:40
        3   1   23    0  -657.43304126   -0.36E+00* -0.25E-01  109 155 1 -0.77E-01*  0.57   0.00    SX    NO    0:21:12
        4   1   22    0  -657.54683077   -0.11E+00* -0.17E-01  109 155 1 -0.52E-01*  0.57   0.00    SX    NO    0:21:38
        5   1   22    0  -657.58638566   -0.40E-01* -0.20E-01  109 155 1 -0.35E-01*  0.56   2.50    LS   YES    0:19:39
        6   1   21    0  -657.60777309   -0.21E-01* -0.10E-01  119 154 1 -0.19E-01*  0.56   1.27    QN   YES    0:21:31
        7   1   19    0  -657.61185956   -0.41E-02* -0.88E-02  119 154 1 -0.10E-01*  0.57   1.60    QN   YES    0:22:26
        8   1   18    0  -657.61351536   -0.17E-02*  0.27E-02  119 154 1 -0.30E-02*  0.56   1.25    QN   YES    0:22:33
        9   1   17    0  -657.61379420   -0.28E-03* -0.15E-02   78 259 1  0.12E-02*  0.56   1.20    QN   YES    0:25:10
       10   1   15    0  -657.61385645   -0.62E-04*  0.15E-02  123 135 1  0.56E-03*  0.56   1.32    QN   YES    0:20:23
       11   1   14    0  -657.61387401   -0.18E-04*  0.15E-02  123 135 1  0.35E-03*  0.56   1.39    QN   YES    0:18:30
       12   1   13    0  -657.61387928   -0.53E-05*  0.16E-02  117 132 1 -0.25E-03*  0.56   1.54    QN   YES    0:23:51
       13   1   12    0  -657.61388194   -0.27E-05* -0.19E-02  117 132 1 -0.16E-03*  0.56   1.68    QN   YES    0:21:05
       14   1   12    0  -657.61388373   -0.18E-05*  0.17E-02  127 149 1  0.11E-03*  0.56   1.62    QN   YES    0:21:13
       15   1   11    0  -657.61388477   -0.10E-05* -0.12E-02  127 149 1  0.83E-04   0.56   1.58    QN   YES    0:23:29
       16   1   11    0  -657.61388530   -0.53E-06* -0.77E-03  126 139 1 -0.79E-04   0.56   1.54    QN   YES    0:27:42
       17   1   10    0  -657.61388555   -0.25E-06* -0.47E-03  117 132 1  0.68E-04   0.56   1.55    QN   YES    0:26:16
       18   1   10    0  -657.61388567   -0.12E-06* -0.29E-03  117 132 1  0.52E-04   0.56   1.55    QN   YES    0:25:49
       19   1    9    0  -657.61388573   -0.59E-07* -0.18E-03  117 132 1  0.33E-04   0.56   1.48    QN   YES    0:21:47
       20   1    8    0  -657.61388576   -0.24E-07*  0.99E-04  117 132 1  0.17E-04   0.56   2.50    QN   YES    0:26:37
       21   1    8    0  -657.61388577   -0.93E-08  -0.47E-04  126 139 1  0.95E-05   0.56   2.50    QN   YES    0:24:59
      Convergence after 21 iterations
       22   1    8    0  -657.61388577   -0.38E-08  -0.47E-04  127 138 1 -0.74E-05   0.56   2.50    QN   YES    0:24:50
 
      ************************************************************************************************************************
                                                      Wave function printout:
                       occupation of active orbitals, and spin coupling of open shells (u,d: Spin up or down)
      ************************************************************************************************************************
 
      Note: transformation to natural orbitals
      has been made, which may change the order of the CSFs.
 
      printout of CI-coefficients larger than  0.05 for root  1
      energy=  -29657.618149
      conf/sym  1111     Coeff  Weight
             1  u000   0.51680 0.26708
             4  000u   0.85510 0.73119
 
      printout of CI-coefficients larger than  0.05 for root  2
      energy=  -29657.615324
      conf/sym  1111     Coeff  Weight
             2  0u00   0.62361 0.38889
             3  00u0  -0.77981 0.60811
 
      printout of CI-coefficients larger than  0.05 for root  3
      energy=  -29657.614862
      conf/sym  1111     Coeff  Weight
             1  u000  -0.13367 0.01787
             2  0u00   0.76122 0.57946
             3  00u0   0.62140 0.38614
             4  000u   0.12855 0.01653
 
      printout of CI-coefficients larger than  0.05 for root  4
      energy=  -29657.607208
      conf/sym  1111     Coeff  Weight
             1  u000   0.84428 0.71281
             2  0u00   0.17502 0.03063
             3  00u0   0.07097 0.00504
             4  000u  -0.50152 0.25152
 
      Natural orbitals and occupation numbers for root  1
      sym 1:  -0.000000  -0.000000  -0.000000   1.000000
 
      Natural orbitals and occupation numbers for root  2
      sym 1:   0.000000  -0.000000   1.000000  -0.000000
 
      Natural orbitals and occupation numbers for root  3
      sym 1:  -0.000000   1.000000   0.000000  -0.000000
 
      Natural orbitals and occupation numbers for root  4
      sym 1:   1.000000   0.000000  -0.000000  -0.000000
 
      ************************************************************************************************************************
      *                                                                                                                      *
      *                                                    Final results                                                     *
      *                                                                                                                      *
      ************************************************************************************************************************
 
 
++    Wave function specifications:
      -----------------------------
 
      Number of closed shell electrons         254
      Number of electrons in active shells       1
      Max number of holes in RAS1 space          0
      Max nr of electrons in RAS3 space          0
      Number of inactive orbitals              127
      Number of active orbitals                  4
      Number of secondary orbitals             737
      Spin quantum number                      0.5
      State symmetry                             1
--
 
++    Orbital specifications:
      -----------------------
 
      Symmetry species                           1
                                                 a
      Frozen orbitals                            0
      Inactive orbitals                        127
      Active orbitals                            4
      RAS1 orbitals                              0
      RAS2 orbitals                              4
      RAS3 orbitals                              0
      Secondary orbitals                       737
      Deleted orbitals                           0
      Number of basis functions                868
--
 
++    CI expansion specifications:
      ----------------------------
 
      Number of CSFs                             4
      Number of determinants                     4
      Number of root(s) required                 4
      CI roots used                              1     2     3     4
      weights                                0.250 0.250 0.250 0.250
      highest root included in the CI            4
      Root passed to geometry opt.               4
--
 
++    Final optimization conditions:
      ------------------------------
 
      Average CI energy                          -29657.61388577
      RASSCF energy for state  4                 -29657.60720792
      Super-CI energy                                -0.00000000
      RASSCF energy change                           -0.00000000
      Max change in MO coefficients              -0.447E-04
      Max non-diagonal density matrix element    -0.465E-04
      Maximum BLB matrix element                 -0.741E-05
      (orbital pair 127, 138 in symmetry   1)
      Norm of electronic gradient            0.154E+00
--
 
 
      Final state energy(ies):
      ------------------------
 
::    RASSCF root number  1 Total energy: -29657.61814877
::    RASSCF root number  2 Total energy: -29657.61532424
::    RASSCF root number  3 Total energy: -29657.61486216
::    RASSCF root number  4 Total energy: -29657.60720792
 
++    Molecular orbitals:
      -------------------
 
      Pseudonatural active orbitals and approximate occupation numbers
 
 
      MOLECULAR ORBITALS FOR SYMMETRY SPECIES 1: a  
 
      INDEX  ENERGY  OCCUPATION COEFFICIENTS ...
          1-4260.2268    2.0000                                                                                                           
                95 U4     1s     ( 1.0000)
          2 -804.1930    2.0000                                                                                                           
                96 U4     2s     ( 1.0000)
          3 -674.8643    2.0000                                                                                                           
               104 U4     2px    (-0.4536) 112 U4     2py    ( 0.8912)
          4 -674.8640    2.0000                                                                                                           
               104 U4     2px    ( 0.8912) 112 U4     2py    ( 0.4536)
          5 -674.8637    2.0000                                                                                                           
               120 U4     2pz    ( 1.0000)
          6 -206.2414    2.0000                                                                                                           
                97 U4     3s     ( 1.0000)
          7 -169.6410    2.0000                                                                                                           
               105 U4     3px    ( 0.8917) 113 U4     3py    ( 0.4527)
          8 -169.6406    2.0000                                                                                                           
               121 U4     3pz    ( 1.0000)
          9 -169.6349    2.0000                                                                                                           
               105 U4     3px    (-0.4527) 113 U4     3py    ( 0.8917)
         10 -135.0648    2.0000                                                                                                           
               128 U4     3d2-   (-0.4025) 140 U4     3d0    ( 0.8665) 152 U4     3d2+   (-0.2954)
         11 -135.0647    2.0000                                                                                                           
               134 U4     3d1-   ( 0.4525) 146 U4     3d1+   ( 0.8918)
         12 -135.0627    2.0000                                                                                                           
               128 U4     3d2-   (-0.5920) 152 U4     3d2+   ( 0.8060)
         13 -135.0626    2.0000                                                                                                           
               134 U4     3d1-   ( 0.8918) 146 U4     3d1+   (-0.4525)
         14 -135.0615    2.0000                                                                                                           
               128 U4     3d2-   ( 0.6983) 140 U4     3d0    ( 0.4992) 152 U4     3d2+   ( 0.5130)
         15  -92.2730    2.0000                                                                                                           
                31 S2     1s     ( 1.0000)
         16  -92.2730    2.0000                                                                                                           
               245 S6     1s     ( 1.0000)
         17  -54.2326    2.0000                                                                                                           
                98 U4     4s     ( 1.0000)
         18  -42.0148    2.0000                                                                                                           
               106 U4     4px    ( 0.8914) 114 U4     4py    ( 0.4532)
         19  -42.0142    2.0000                                                                                                           
               122 U4     4pz    ( 1.0000)
         20  -42.0033    2.0000                                                                                                           
               106 U4     4px    (-0.4532) 114 U4     4py    ( 0.8914)
         21  -28.7751    2.0000                                                                                                           
               135 U4     4d1-   ( 0.4533) 147 U4     4d1+   ( 0.8914)
         22  -28.7749    2.0000                                                                                                           
               129 U4     4d2-   (-0.4174) 141 U4     4d0    ( 0.8562) 153 U4     4d2+   (-0.3046)
         23  -28.7689    2.0000                                                                                                           
               129 U4     4d2-   (-0.5895) 153 U4     4d2+   ( 0.8077)
         24  -28.7688    2.0000                                                                                                           
               135 U4     4d1-   ( 0.8914) 147 U4     4d1+   (-0.4533)
         25  -28.7661    2.0000                                                                                                           
               129 U4     4d2-   ( 0.6916) 141 U4     4d0    ( 0.5167) 153 U4     4d2+   ( 0.5048)
         26  -20.4228    2.0000                                                                                                           
                65 O3     1s     (-0.7969) 309 O8     1s     ( 0.5898)
         27  -20.4228    2.0000                                                                                                           
                65 O3     1s     ( 0.1018) 215 O5     1s     ( 0.7439) 339 O9     1s     (-0.6555)
         28  -20.4227    2.0000                                                                                                           
                65 O3     1s     ( 0.5659) 215 O5     1s     (-0.2021) 309 O8     1s     ( 0.7653) 339 O9     1s     (-0.2285)
      
         29  -20.4227    2.0000                                                                                                           
                65 O3     1s     ( 0.1823) 215 O5     1s     ( 0.6290) 309 O8     1s     ( 0.2447) 339 O9     1s     ( 0.7143)
      
         30  -20.3774    2.0000                                                                                                           
               369 O10    1s     ( 0.9641) 399 O11    1s     ( 0.2647)
         31  -20.3774    2.0000                                                                                                           
               369 O10    1s     (-0.2646) 399 O11    1s     ( 0.9641)
         32  -14.9868    2.0000                                                                                                           
               162 U4     4f2-   ( 0.4793) 170 U4     4f0    (-0.8050) 178 U4     4f2+   ( 0.3497)
         33  -14.9867    2.0000                                                                                                           
               158 U4     4f3-   (-0.2535) 166 U4     4f1-   ( 0.4378) 174 U4     4f1+   ( 0.8616)
         34  -14.9829    2.0000                                                                                                           
               166 U4     4f1-   (-0.8112) 174 U4     4f1+   ( 0.4123) 182 U4     4f3+   ( 0.4096)
         35  -14.9829    2.0000                                                                                                           
               162 U4     4f2-   (-0.5890) 178 U4     4f2+   ( 0.8081)
         36  -14.9827    2.0000                                                                                                           
               158 U4     4f3-   (-0.1444) 166 U4     4f1-   ( 0.3697) 174 U4     4f1+   (-0.1879) 182 U4     4f3+   ( 0.8984)
      
         37  -14.9742    2.0000                                                                                                           
               158 U4     4f3-   ( 0.9543) 166 U4     4f1-   ( 0.1167) 174 U4     4f1+   ( 0.2287) 182 U4     4f3+   ( 0.1532)
      
         38  -14.9741    2.0000                                                                                                           
               162 U4     4f2-   ( 0.6506) 170 U4     4f0    ( 0.5933) 178 U4     4f2+   ( 0.4740)
         39  -12.5557    2.0000                                                                                                           
                99 U4     5s     ( 1.0003)
         40  -11.1570    2.0000                                                                                                           
               279 C7     1s     (-0.1428) 429 C12    1s     (-0.4113) 459 C13    1s     (-0.2808) 489 C14    1s     (-0.8542)
      
         41  -11.1570    2.0000                                                                                                           
                 1 C1     1s     (-0.1425) 649 C22    1s     (-0.4106) 679 C23    1s     (-0.2806) 709 C24    1s     (-0.8546)
      
         42  -11.1567    2.0000                                                                                                           
               279 C7     1s     ( 0.3496) 429 C12    1s     ( 0.8071) 489 C14    1s     (-0.4713)
         43  -11.1567    2.0000                                                                                                           
                 1 C1     1s     (-0.3498) 649 C22    1s     (-0.8074) 709 C24    1s     ( 0.4705)
         44  -11.1550    2.0000                                                                                                           
               279 C7     1s     ( 0.9174) 429 C12    1s     (-0.3358) 459 C13    1s     (-0.2048)
         45  -11.1550    2.0000                                                                                                           
                 1 C1     1s     (-0.9174) 649 C22    1s     ( 0.3359) 679 C23    1s     ( 0.2047)
         46  -11.1539    2.0000                                                                                                           
               279 C7     1s     ( 0.1283) 429 C12    1s     (-0.2652) 459 C13    1s     ( 0.9361) 489 C14    1s     (-0.2011)
      
         47  -11.1539    2.0000                                                                                                           
                 1 C1     1s     (-0.1282) 649 C22    1s     ( 0.2652) 679 C23    1s     (-0.9362) 709 C24    1s     ( 0.2010)
      
         48  -11.1485    2.0000                                                                                                           
               519 C15    1s     ( 0.9938)
         49  -11.1485    2.0000                                                                                                           
               739 C25    1s     (-0.9938)
         50  -11.1421    2.0000                                                                                                           
               519 C15    1s     ( 0.1010) 549 C16    1s     (-0.9964)
         51  -11.1421    2.0000                                                                                                           
               739 C25    1s     (-0.1010) 769 C26    1s     ( 0.9964)
         52   -9.0133    2.0000                                                                                                           
                32 S2     2s     ( 0.9984)
         53   -9.0133    2.0000                                                                                                           
               246 S6     2s     ( 0.9984)
         54   -8.6509    2.0000                                                                                                           
               107 U4     5px    (-0.4486) 115 U4     5py    ( 0.8931)
         55   -8.6449    2.0000                                                                                                           
               107 U4     5px    ( 0.8935) 115 U4     5py    ( 0.4488)
         56   -8.6429    2.0000                                                                                                           
               123 U4     5pz    ( 1.0000)
         57   -6.6456    2.0000                                                                                                           
                36 S2     2px    ( 0.9497)  40 S2     2py    (-0.3143)
         58   -6.6456    2.0000                                                                                                           
               250 S6     2px    ( 0.9498) 254 S6     2py    (-0.3141)
         59   -6.6456    2.0000                                                                                                           
                44 S2     2pz    (-0.9981)
         60   -6.6456    2.0000                                                                                                           
               258 S6     2pz    ( 0.9981)
         61   -6.6436    2.0000                                                                                                           
                36 S2     2px    (-0.3142)  40 S2     2py    (-0.9490)
         62   -6.6436    2.0000                                                                                                           
               250 S6     2px    ( 0.3140) 254 S6     2py    ( 0.9490)
         63   -4.1284    2.0000                                                                                                           
               130 U4     5d2-   ( 0.6874) 142 U4     5d0    ( 0.5224) 154 U4     5d2+   ( 0.5017)
         64   -4.1179    2.0000                                                                                                           
               136 U4     5d1-   ( 0.8929) 148 U4     5d1+   (-0.4497)
         65   -4.1178    2.0000                                                                                                           
               130 U4     5d2-   (-0.5908) 154 U4     5d2+   ( 0.8065)
         66   -4.1098    2.0000                                                                                                           
               130 U4     5d2-   (-0.4204) 142 U4     5d0    ( 0.8523) 154 U4     5d2+   (-0.3109)
         67   -4.1092    2.0000                                                                                                           
               136 U4     5d1-   ( 0.4497) 148 U4     5d1+   ( 0.8930)
         68   -2.0532    2.0000                                                                                                           
               100 U4     6s     ( 0.9681)
         69   -1.3020    2.0000                                                                                                           
               108 U4     6px    (-0.2456) 116 U4     6py    ( 0.4652) 370 O10    2s     ( 0.4427) 376 O10    2py    (-0.1131)
               400 O11    2s     (-0.4427) 406 O11    2py    (-0.1131)
         70   -1.2861    2.0000                                                                                                           
                33 S2     3s     (-0.2380)  66 O3     2s     (-0.3449) 108 U4     6px    (-0.1211) 216 O5     2s     ( 0.3448)
               247 S6     3s     ( 0.2380) 310 O8     2s     (-0.3448) 340 O9     2s     ( 0.3448)
         71   -1.2795    2.0000                                                                                                           
                33 S2     3s     (-0.2538)  66 O3     2s     (-0.3449) 216 O5     2s     (-0.3450) 247 S6     3s     (-0.2539)
               310 O8     2s     (-0.3449) 340 O9     2s     (-0.3449)
         72   -1.1727    2.0000                                                                                                           
                45 S2     3pz    ( 0.1456)  66 O3     2s     (-0.4130) 124 U4     6pz    ( 0.1204) 216 O5     2s     ( 0.4129)
               259 S6     3pz    ( 0.1456) 310 O8     2s     ( 0.4130) 340 O9     2s     (-0.4129)
         73   -1.1696    2.0000                                                                                                           
                45 S2     3pz    ( 0.1462)  66 O3     2s     (-0.4225) 216 O5     2s     (-0.4226) 259 S6     3pz    (-0.1463)
               310 O8     2s     ( 0.4226) 340 O9     2s     ( 0.4227)
         74   -1.0771    2.0000                                                                                                           
               100 U4     6s     (-0.2517) 370 O10    2s     ( 0.6323) 400 O11    2s     ( 0.6323)
         75   -1.0707    2.0000                                                                                                           
                 2 C1     2s     (-0.1570) 280 C7     2s     ( 0.1573) 430 C12    2s     ( 0.2391) 460 C13    2s     ( 0.2326)
               490 C14    2s     ( 0.2092) 520 C15    2s     ( 0.2337) 550 C16    2s     ( 0.2197) 650 C22    2s     (-0.2386)
               680 C23    2s     (-0.2322) 710 C24    2s     (-0.2088) 740 C25    2s     (-0.2333) 770 C26    2s     (-0.2192)
      
         76   -1.0701    2.0000                                                                                                           
                 2 C1     2s     ( 0.1560) 280 C7     2s     ( 0.1557) 370 O10    2s     (-0.1167) 400 O11    2s     (-0.1167)
               430 C12    2s     ( 0.2341) 460 C13    2s     ( 0.2308) 490 C14    2s     ( 0.2088) 520 C15    2s     ( 0.2300)
               550 C16    2s     ( 0.2210) 650 C22    2s     ( 0.2346) 680 C23    2s     ( 0.2313) 710 C24    2s     ( 0.2092)
               740 C25    2s     ( 0.2305) 770 C26    2s     ( 0.2214)
         77   -0.9822    2.0000                                                                                                           
                33 S2     3s     (-0.1351) 108 U4     6px    ( 0.7823) 116 U4     6py    ( 0.3984) 247 S6     3s     ( 0.1351)
      
         78   -0.9758    2.0000                                                                                                           
               124 U4     6pz    ( 0.9560)
         79   -0.9409    2.0000                                                                                                           
                 2 C1     2s     (-0.3031)  33 S2     3s     (-0.1039) 247 S6     3s     (-0.1039) 280 C7     2s     (-0.3031)
               430 C12    2s     (-0.2633) 460 C13    2s     ( 0.1437) 490 C14    2s     ( 0.3809) 520 C15    2s     ( 0.2507)
               550 C16    2s     (-0.1237) 650 C22    2s     (-0.2633) 680 C23    2s     ( 0.1437) 710 C24    2s     ( 0.3809)
               740 C25    2s     ( 0.2507) 770 C26    2s     (-0.1237)
         80   -0.9372    2.0000                                                                                                           
                 2 C1     2s     ( 0.2820) 108 U4     6px    ( 0.2436) 116 U4     6py    ( 0.1283) 280 C7     2s     (-0.2820)
               430 C12    2s     (-0.2859) 460 C13    2s     ( 0.1036) 490 C14    2s     ( 0.3663) 520 C15    2s     ( 0.2651)
               650 C22    2s     ( 0.2859) 680 C23    2s     (-0.1036) 710 C24    2s     (-0.3663) 740 C25    2s     (-0.2651)
      
         81   -0.9312    2.0000                                                                                                           
               430 C12    2s     (-0.2971) 460 C13    2s     (-0.3751) 520 C15    2s     ( 0.3266) 550 C16    2s     ( 0.3932)
               650 C22    2s     (-0.2917) 680 C23    2s     (-0.3676) 740 C25    2s     ( 0.3206) 770 C26    2s     ( 0.3853)
      
         82   -0.9311    2.0000                                                                                                           
                 2 C1     2s     (-0.1024) 280 C7     2s     ( 0.1007) 430 C12    2s     (-0.2685) 460 C13    2s     (-0.3760)
               520 C15    2s     ( 0.3018) 550 C16    2s     ( 0.3948) 650 C22    2s     ( 0.2743) 680 C23    2s     ( 0.3833)
               740 C25    2s     (-0.3082) 770 C26    2s     (-0.4025)
         83   -0.7868    2.0000                                                                                                           
                33 S2     3s     (-0.3562)  37 S2     3px    (-0.1153)  66 O3     2s     ( 0.2079) 216 O5     2s     ( 0.2079)
               247 S6     3s     (-0.3562) 251 S6     3px    ( 0.1153) 310 O8     2s     ( 0.2079) 340 O9     2s     ( 0.2079)
               430 C12    2s     ( 0.1479) 490 C14    2s     (-0.2687) 550 C16    2s     ( 0.1798) 650 C22    2s     ( 0.1479)
               710 C24    2s     (-0.2687) 770 C26    2s     ( 0.1798)
         84   -0.7811    2.0000                                                                                                           
                 2 C1     2s     ( 0.1117)  33 S2     3s     ( 0.3300)  37 S2     3px    ( 0.1195)  66 O3     2s     (-0.2114)
               108 U4     6px    ( 0.1869) 216 O5     2s     ( 0.2114) 247 S6     3s     (-0.3300) 251 S6     3px    ( 0.1195)
               280 C7     2s     (-0.1117) 310 O8     2s     (-0.2114) 340 O9     2s     ( 0.2114) 430 C12    2s     ( 0.1415)
               490 C14    2s     (-0.2697) 550 C16    2s     ( 0.1825) 650 C22    2s     (-0.1414) 710 C24    2s     ( 0.2697)
               770 C26    2s     (-0.1825)
         85   -0.7665    2.0000                                                                                                           
               108 U4     6px    ( 0.3085) 116 U4     6py    (-0.6343) 370 O10    2s     ( 0.5465) 376 O10    2py    ( 0.1564)
               400 O11    2s     (-0.5465) 406 O11    2py    ( 0.1564)
         86   -0.7428    2.0000                                                                                                           
                 8 C1     2py    ( 0.1221) 286 C7     2py    (-0.1234) 430 C12    2s     ( 0.2844) 460 C13    2s     (-0.2558)
               496 C14    2py    ( 0.1126) 520 C15    2s     ( 0.2888) 550 C16    2s     (-0.2608) 579 H17    1s     ( 0.1129)
               621 H20    1s     ( 0.1075) 650 C22    2s     ( 0.2814) 680 C23    2s     (-0.2531) 716 C24    2py    (-0.1114)
               740 C25    2s     ( 0.2858) 770 C26    2s     (-0.2581) 799 H27    1s     ( 0.1117) 841 H30    1s     ( 0.1064)
      
         87   -0.7426    2.0000                                                                                                           
                 8 C1     2py    (-0.1236) 286 C7     2py    (-0.1224) 430 C12    2s     ( 0.2805) 460 C13    2s     (-0.2517)
               496 C14    2py    ( 0.1112) 520 C15    2s     ( 0.2844) 550 C16    2s     (-0.2578) 579 H17    1s     ( 0.1117)
               621 H20    1s     ( 0.1061) 650 C22    2s     (-0.2835) 680 C23    2s     ( 0.2543) 716 C24    2py    ( 0.1123)
               740 C25    2s     (-0.2874) 770 C26    2s     ( 0.2605) 799 H27    1s     (-0.1129) 841 H30    1s     (-0.1073)
      
         88   -0.6985    2.0000                                                                                                           
                 2 C1     2s     (-0.2338)   5 C1     2px    (-0.1066)  33 S2     3s     ( 0.2965)  66 O3     2s     (-0.1769)
               216 O5     2s     (-0.1770) 247 S6     3s     ( 0.2966) 280 C7     2s     (-0.2339) 283 C7     2px    ( 0.1066)
               310 O8     2s     (-0.1769) 340 O9     2s     (-0.1770) 433 C12    2px    (-0.1232) 460 C13    2s     ( 0.1898)
               466 C13    2py    (-0.1023) 490 C14    2s     (-0.2132) 520 C15    2s     ( 0.1625) 523 C15    2px    ( 0.1053)
               556 C16    2py    ( 0.1177) 593 H18    1s     ( 0.1106) 653 C22    2px    ( 0.1231) 680 C23    2s     ( 0.1898)
               686 C23    2py    ( 0.1023) 710 C24    2s     (-0.2131) 740 C25    2s     ( 0.1624) 743 C25    2px    (-0.1052)
               776 C26    2py    (-0.1177) 813 H28    1s     ( 0.1105)
         89   -0.6962    2.0000                                                                                                           
                 2 C1     2s     (-0.2246)   5 C1     2px    (-0.1105)  33 S2     3s     ( 0.3049)  66 O3     2s     (-0.1936)
               216 O5     2s     ( 0.1936) 247 S6     3s     (-0.3048) 280 C7     2s     ( 0.2245) 283 C7     2px    (-0.1105)
               310 O8     2s     (-0.1936) 340 O9     2s     ( 0.1935) 433 C12    2px    ( 0.1192) 460 C13    2s     (-0.1846)
               490 C14    2s     ( 0.2034) 520 C15    2s     (-0.1599) 523 C15    2px    (-0.1020) 556 C16    2py    (-0.1163)
               593 H18    1s     (-0.1115) 653 C22    2px    ( 0.1193) 680 C23    2s     ( 0.1847) 710 C24    2s     (-0.2035)
               740 C25    2s     ( 0.1600) 743 C25    2px    (-0.1021) 776 C26    2py    (-0.1163) 813 H28    1s     ( 0.1115)
      
         90   -0.6147    2.0000                                                                                                           
                33 S2     3s     (-0.1393) 247 S6     3s     (-0.1396) 436 C12    2py    (-0.1578) 463 C13    2px    (-0.1341)
               493 C14    2px    (-0.1496) 496 C14    2py    ( 0.1121) 526 C15    2py    ( 0.1318) 553 C16    2px    ( 0.1452)
               579 H17    1s     ( 0.1502) 593 H18    1s     ( 0.1142) 607 H19    1s     ( 0.1889) 621 H20    1s     ( 0.1044)
               635 H21    1s     ( 0.1256) 656 C22    2py    ( 0.1575) 683 C23    2px    ( 0.1339) 713 C24    2px    ( 0.1493)
               716 C24    2py    (-0.1119) 746 C25    2py    (-0.1315) 773 C26    2px    (-0.1449) 799 H27    1s     ( 0.1499)
               813 H28    1s     ( 0.1139) 827 H29    1s     ( 0.1885) 841 H30    1s     ( 0.1042) 855 H31    1s     ( 0.1253)
      
         91   -0.6139    2.0000                                                                                                           
                33 S2     3s     ( 0.1435)  66 O3     2s     (-0.1028) 216 O5     2s     ( 0.1026) 247 S6     3s     (-0.1432)
               310 O8     2s     (-0.1028) 340 O9     2s     ( 0.1026) 436 C12    2py    (-0.1575) 463 C13    2px    (-0.1348)
               493 C14    2px    (-0.1507) 496 C14    2py    ( 0.1119) 526 C15    2py    ( 0.1315) 553 C16    2px    ( 0.1419)
               579 H17    1s     ( 0.1495) 593 H18    1s     ( 0.1136) 607 H19    1s     ( 0.1905) 621 H20    1s     ( 0.1017)
               635 H21    1s     ( 0.1261) 656 C22    2py    (-0.1578) 683 C23    2px    (-0.1351) 713 C24    2px    (-0.1510)
               716 C24    2py    ( 0.1121) 746 C25    2py    ( 0.1318) 773 C26    2px    ( 0.1422) 799 H27    1s     (-0.1498)
               813 H28    1s     (-0.1138) 827 H29    1s     (-0.1909) 841 H30    1s     (-0.1019) 855 H31    1s     (-0.1264)
      
         92   -0.5513    2.0000                                                                                                           
                 2 C1     2s     (-0.1351)  37 S2     3px    (-0.1596)  41 S2     3py    ( 0.1085)  75 O3     2pz    ( 0.1070)
               225 O5     2pz    (-0.1070) 251 S6     3px    ( 0.1597) 255 S6     3py    (-0.1085) 280 C7     2s     (-0.1351)
               319 O8     2pz    (-0.1066) 349 O9     2pz    ( 0.1066) 430 C12    2s     ( 0.1313) 436 C12    2py    (-0.1127)
               460 C13    2s     (-0.1530) 490 C14    2s     ( 0.1523) 520 C15    2s     (-0.1584) 526 C15    2py    (-0.1165)
               550 C16    2s     ( 0.1739) 579 H17    1s     ( 0.1543) 593 H18    1s     (-0.1406) 607 H19    1s     ( 0.1344)
               621 H20    1s     (-0.1614) 635 H21    1s     ( 0.1109) 650 C22    2s     ( 0.1312) 656 C22    2py    ( 0.1126)
               680 C23    2s     (-0.1529) 710 C24    2s     ( 0.1522) 740 C25    2s     (-0.1584) 746 C25    2py    ( 0.1165)
               770 C26    2s     ( 0.1738) 799 H27    1s     ( 0.1543) 813 H28    1s     (-0.1406) 827 H29    1s     ( 0.1344)
               841 H30    1s     (-0.1613) 855 H31    1s     ( 0.1109)
         93   -0.5508    2.0000                                                                                                           
                 2 C1     2s     ( 0.1370)  37 S2     3px    ( 0.1543)  41 S2     3py    (-0.1132)  72 O3     2py    (-0.1002)
               222 O5     2py    (-0.1001) 251 S6     3px    ( 0.1543) 255 S6     3py    (-0.1132) 280 C7     2s     (-0.1370)
               316 O8     2py    (-0.1004) 346 O9     2py    (-0.1005) 430 C12    2s     ( 0.1306) 436 C12    2py    (-0.1139)
               460 C13    2s     (-0.1529) 490 C14    2s     ( 0.1540) 520 C15    2s     (-0.1589) 526 C15    2py    (-0.1207)
               550 C16    2s     ( 0.1816) 579 H17    1s     ( 0.1567) 593 H18    1s     (-0.1428) 607 H19    1s     ( 0.1325)
               621 H20    1s     (-0.1637) 635 H21    1s     ( 0.1041) 650 C22    2s     (-0.1307) 656 C22    2py    (-0.1139)
               680 C23    2s     ( 0.1529) 710 C24    2s     (-0.1540) 740 C25    2s     ( 0.1589) 746 C25    2py    (-0.1208)
               770 C26    2s     (-0.1816) 799 H27    1s     (-0.1568) 813 H28    1s     ( 0.1429) 827 H29    1s     (-0.1326)
               841 H30    1s     ( 0.1637) 855 H31    1s     (-0.1041)
         94   -0.5470    2.0000                                                                                                           
                 5 C1     2px    (-0.1359)   8 C1     2py    (-0.1724)  41 S2     3py    (-0.1071) 255 S6     3py    ( 0.1073)
               283 C7     2px    ( 0.1361) 286 C7     2py    ( 0.1728) 433 C12    2px    (-0.2219) 463 C13    2px    ( 0.1320)
               466 C13    2py    (-0.1775) 493 C14    2px    ( 0.1268) 496 C14    2py    ( 0.1721) 523 C15    2px    (-0.2151)
               553 C16    2px    ( 0.1011) 556 C16    2py    (-0.1721) 653 C22    2px    ( 0.2214) 683 C23    2px    (-0.1317)
               686 C23    2py    ( 0.1771) 713 C24    2px    (-0.1265) 716 C24    2py    (-0.1717) 743 C25    2px    ( 0.2147)
               773 C26    2px    (-0.1009) 776 C26    2py    ( 0.1718)
         95   -0.5463    2.0000                                                                                                           
                 5 C1     2px    (-0.1357)   8 C1     2py    (-0.1790) 283 C7     2px    (-0.1354) 286 C7     2py    (-0.1786)
               433 C12    2px    ( 0.2256) 463 C13    2px    (-0.1328) 466 C13    2py    ( 0.1793) 493 C14    2px    (-0.1227)
               496 C14    2py    (-0.1773) 523 C15    2px    ( 0.2153) 553 C16    2px    (-0.1016) 556 C16    2py    ( 0.1734)
               653 C22    2px    ( 0.2261) 683 C23    2px    (-0.1330) 686 C23    2py    ( 0.1797) 713 C24    2px    (-0.1230)
               716 C24    2py    (-0.1777) 743 C25    2px    ( 0.2158) 773 C26    2px    (-0.1018) 776 C26    2py    ( 0.1738)
      
         96   -0.5173    2.0000                                                                                                           
                 2 C1     2s     ( 0.1339)   5 C1     2px    ( 0.1385)   8 C1     2py    (-0.1201)  37 S2     3px    (-0.1717)
                72 O3     2py    ( 0.1091)  75 O3     2pz    ( 0.1271) 222 O5     2py    (-0.1091) 225 O5     2pz    (-0.1271)
               251 S6     3px    ( 0.1717) 280 C7     2s     ( 0.1340) 283 C7     2px    (-0.1385) 286 C7     2py    ( 0.1201)
               316 O8     2py    ( 0.1097) 319 O8     2pz    (-0.1267) 346 O9     2py    (-0.1098) 349 O9     2pz    ( 0.1268)
               463 C13    2px    (-0.1198) 466 C13    2py    (-0.1133) 493 C14    2px    (-0.1229) 496 C14    2py    ( 0.1267)
               526 C15    2py    ( 0.1170) 556 C16    2py    (-0.1102) 579 H17    1s     (-0.1076) 593 H18    1s     ( 0.1544)
               607 H19    1s     ( 0.1478) 621 H20    1s     ( 0.1157) 635 H21    1s     (-0.1115) 683 C23    2px    ( 0.1198)
               686 C23    2py    ( 0.1133) 713 C24    2px    ( 0.1229) 716 C24    2py    (-0.1267) 746 C25    2py    (-0.1170)
               776 C26    2py    ( 0.1102) 799 H27    1s     (-0.1075) 813 H28    1s     ( 0.1543) 827 H29    1s     ( 0.1477)
               841 H30    1s     ( 0.1157) 855 H31    1s     (-0.1115)
         97   -0.5150    2.0000                                                                                                           
                 2 C1     2s     ( 0.1273)   5 C1     2px    ( 0.1465)   8 C1     2py    (-0.1271)  37 S2     3px    (-0.1763)
                72 O3     2py    ( 0.1213)  75 O3     2pz    ( 0.1161) 222 O5     2py    ( 0.1214) 225 O5     2pz    ( 0.1162)
               251 S6     3px    (-0.1763) 280 C7     2s     (-0.1273) 283 C7     2px    ( 0.1465) 286 C7     2py    (-0.1271)
               316 O8     2py    ( 0.1220) 319 O8     2pz    (-0.1158) 346 O9     2py    ( 0.1218) 349 O9     2pz    (-0.1157)
               463 C13    2px    ( 0.1133) 466 C13    2py    ( 0.1175) 493 C14    2px    ( 0.1297) 496 C14    2py    (-0.1340)
               526 C15    2py    (-0.1124) 556 C16    2py    ( 0.1080) 579 H17    1s     ( 0.1083) 593 H18    1s     (-0.1491)
               607 H19    1s     (-0.1580) 621 H20    1s     (-0.1122) 635 H21    1s     ( 0.1187) 683 C23    2px    ( 0.1133)
               686 C23    2py    ( 0.1175) 713 C24    2px    ( 0.1298) 716 C24    2py    (-0.1340) 746 C25    2py    (-0.1125)
               776 C26    2py    ( 0.1080) 799 H27    1s     (-0.1084) 813 H28    1s     ( 0.1492) 827 H29    1s     ( 0.1580)
               841 H30    1s     ( 0.1122) 855 H31    1s     (-0.1187)
         98   -0.5081    2.0000                                                                                                           
                45 S2     3pz    ( 0.3162)  66 O3     2s     ( 0.2180)  69 O3     2px    (-0.2736)  72 O3     2py    (-0.1490)
                75 O3     2pz    (-0.1394) 216 O5     2s     ( 0.2179) 219 O5     2px    ( 0.2733) 222 O5     2py    ( 0.1489)
               225 O5     2pz    ( 0.1397) 259 S6     3pz    (-0.3162) 310 O8     2s     (-0.2173) 313 O8     2px    ( 0.2735)
               316 O8     2py    ( 0.1501) 319 O8     2pz    (-0.1380) 340 O9     2s     (-0.2174) 343 O9     2px    (-0.2737)
               346 O9     2py    (-0.1502) 349 O9     2pz    ( 0.1377)
         99   -0.5058    2.0000                                                                                                           
                41 S2     3py    ( 0.1008)  75 O3     2pz    (-0.1128) 225 O5     2pz    ( 0.1125) 255 S6     3py    (-0.1008)
               319 O8     2pz    ( 0.1137) 349 O9     2pz    (-0.1141) 436 C12    2py    (-0.1789) 463 C13    2px    (-0.1620)
               526 C15    2py    (-0.1978) 553 C16    2px    (-0.1536) 579 H17    1s     ( 0.1612) 593 H18    1s     ( 0.1737)
               621 H20    1s     (-0.1867) 635 H21    1s     (-0.1619) 656 C22    2py    ( 0.1787) 683 C23    2px    ( 0.1618)
               746 C25    2py    ( 0.1976) 773 C26    2px    ( 0.1534) 799 H27    1s     ( 0.1611) 813 H28    1s     ( 0.1735)
               841 H30    1s     (-0.1866) 855 H31    1s     (-0.1617)
        100   -0.5036    2.0000                                                                                                           
               436 C12    2py    ( 0.1991) 463 C13    2px    ( 0.1915) 526 C15    2py    ( 0.2148) 553 C16    2px    ( 0.1760)
               579 H17    1s     (-0.1755) 593 H18    1s     (-0.1931) 621 H20    1s     ( 0.1967) 635 H21    1s     ( 0.1798)
               656 C22    2py    ( 0.1992) 683 C23    2px    ( 0.1916) 746 C25    2py    ( 0.2150) 773 C26    2px    ( 0.1761)
               799 H27    1s     ( 0.1757) 813 H28    1s     ( 0.1933) 841 H30    1s     (-0.1968) 855 H31    1s     (-0.1799)
      
        101   -0.4953    2.0000                                                                                                           
                45 S2     3pz    (-0.3250)  66 O3     2s     (-0.2339)  69 O3     2px    ( 0.2606)  72 O3     2py    ( 0.1415)
                75 O3     2pz    ( 0.1618) 124 U4     6pz    (-0.1488) 216 O5     2s     ( 0.2336) 219 O5     2px    ( 0.2605)
               222 O5     2py    ( 0.1422) 225 O5     2pz    ( 0.1615) 259 S6     3pz    (-0.3250) 310 O8     2s     ( 0.2335)
               313 O8     2px    (-0.2605) 316 O8     2py    (-0.1430) 319 O8     2pz    ( 0.1606) 340 O9     2s     (-0.2338)
               343 O9     2px    (-0.2606) 346 O9     2py    (-0.1424) 349 O9     2pz    ( 0.1609)
        102   -0.4882    2.0000                                                                                                           
                33 S2     3s     ( 0.1163)  41 S2     3py    ( 0.2301)  72 O3     2py    ( 0.1874)  75 O3     2pz    (-0.2183)
               222 O5     2py    (-0.1868) 225 O5     2pz    ( 0.2189) 247 S6     3s     ( 0.1163) 255 S6     3py    (-0.2301)
               316 O8     2py    ( 0.1857) 319 O8     2pz    ( 0.2198) 346 O9     2py    (-0.1863) 349 O9     2pz    (-0.2192)
               436 C12    2py    ( 0.1251) 463 C13    2px    ( 0.1340) 553 C16    2px    ( 0.1105) 579 H17    1s     (-0.1064)
               656 C22    2py    (-0.1251) 683 C23    2px    (-0.1340) 773 C26    2px    (-0.1105) 799 H27    1s     (-0.1065)
      
        103   -0.4775    2.0000                                                                                                           
                33 S2     3s     (-0.1433)  37 S2     3px    (-0.1518)  41 S2     3py    (-0.2829)  72 O3     2py    (-0.1996)
                75 O3     2pz    ( 0.2381) 108 U4     6px    (-0.1193) 222 O5     2py    (-0.1996) 225 O5     2pz    ( 0.2381)
               247 S6     3s     ( 0.1433) 251 S6     3px    (-0.1518) 255 S6     3py    (-0.2829) 316 O8     2py    (-0.1983)
               319 O8     2pz    (-0.2390) 346 O9     2py    (-0.1983) 349 O9     2pz    (-0.2391)
        104   -0.4386    2.0000                                                                                                           
                41 S2     3py    ( 0.1116)  69 O3     2px    (-0.1756)  72 O3     2py    ( 0.1128) 219 O5     2px    ( 0.1756)
               222 O5     2py    (-0.1125) 255 S6     3py    (-0.1116) 313 O8     2px    (-0.1755) 316 O8     2py    ( 0.1123)
               343 O9     2px    ( 0.1754) 346 O9     2py    (-0.1125) 436 C12    2py    (-0.1060) 463 C13    2px    (-0.1069)
               466 C13    2py    ( 0.1126) 493 C14    2px    ( 0.2031) 496 C14    2py    (-0.1150) 523 C15    2px    (-0.2002)
               553 C16    2px    ( 0.2002) 607 H19    1s     (-0.2315) 635 H21    1s     ( 0.1387) 656 C22    2py    ( 0.1060)
               683 C23    2px    ( 0.1069) 686 C23    2py    (-0.1126) 713 C24    2px    (-0.2031) 716 C24    2py    ( 0.1151)
               743 C25    2px    ( 0.2002) 773 C26    2px    (-0.2002) 827 H29    1s     (-0.2316) 855 H31    1s     ( 0.1387)
      
        105   -0.4341    2.0000                                                                                                           
                69 O3     2px    ( 0.1348)  72 O3     2py    (-0.1036) 219 O5     2px    ( 0.1349) 222 O5     2py    (-0.1032)
               313 O8     2px    ( 0.1347) 316 O8     2py    (-0.1032) 343 O9     2px    ( 0.1347) 346 O9     2py    (-0.1036)
               433 C12    2px    ( 0.1196) 436 C12    2py    (-0.1281) 463 C13    2px    (-0.1286) 466 C13    2py    ( 0.1411)
[...]
     5  0.5 -0.5    4  0.5  0.5       559.739     -1093.630      1228.550
     6  0.5  0.5    2  0.5  0.5         0.000     -1217.850      1217.850
     6  0.5  0.5    3  0.5 -0.5      -559.739     -1093.630      1228.550
     7  0.5 -0.5    2  0.5  0.5       598.312     -1239.178      1376.059
     7  0.5 -0.5    3  0.5 -0.5         0.000     -1082.643      1082.643
     7  0.5 -0.5    4  0.5  0.5         4.486         0.751         4.548
     7  0.5 -0.5    5  0.5 -0.5         0.000        -5.454         5.454
     7  0.5 -0.5    6  0.5  0.5     -2694.488     -1331.437      3005.493
     8  0.5  0.5    1  0.5 -0.5      -598.312     -1239.178      1376.059
     8  0.5  0.5    3  0.5 -0.5        -4.486         0.751         4.548
     8  0.5  0.5    4  0.5  0.5         0.000      1082.643      1082.643
     8  0.5  0.5    5  0.5 -0.5      2694.488     -1331.437      3005.493
     8  0.5  0.5    6  0.5  0.5         0.000         5.454         5.454
 ----------------------------------------------------------------------
 
       Total energies including SO-coupling:
::    SO-RASSI State    1     Total energy: -29657.63086119
::    SO-RASSI State    2     Total energy: -29657.63086119
::    SO-RASSI State    3     Total energy: -29657.62562864
::    SO-RASSI State    4     Total energy: -29657.62562864
::    SO-RASSI State    5     Total energy: -29657.60258986
::    SO-RASSI State    6     Total energy: -29657.60258986
::    SO-RASSI State    7     Total energy: -29657.59646338
::    SO-RASSI State    8     Total energy: -29657.59646338
 
 
   Eigenvalues of complex Hamiltonian:
   -----------------------------------
 
  (Shifted by EVAC (a.u.) =    -29657.618148767)
 
          Relative EVac(au)    Rel lowest level(eV)    D:o, cm**(-1)
 
     1       -0.0127124266          0.0000000000              0.0000
     2       -0.0127124266          0.0000000000              0.0000
     3       -0.0074798756          0.1423849648           1148.4122
     4       -0.0074798756          0.1423849648           1148.4122
     5        0.0155589026          0.7693020524           6204.8396
     6        0.0155589026          0.7693020524           6204.8396
     7        0.0216853857          0.9360121481           7549.4472
     8        0.0216853857          0.9360121481           7549.4472
 
 
 Weights of the five most important spin-orbit-free states for each spin-orbit s
 tate.
 
 SO State  Total energy (au)           Spin-free states, spin, and weights
 -------------------------------------------------------------------------------
 ------------------------
    1        -0.012712       3 0.5  0.4645    4 0.5  0.3004    1 0.5  0.2121    2 0.5  0.0230
    2        -0.012712       3 0.5  0.4645    4 0.5  0.3004    1 0.5  0.2121    2 0.5  0.0230
    3        -0.007480       2 0.5  0.5297    1 0.5  0.4221    3 0.5  0.0353    4 0.5  0.0129
    4        -0.007480       2 0.5  0.5297    1 0.5  0.4221    3 0.5  0.0353    4 0.5  0.0129
    5         0.015559       2 0.5  0.4280    1 0.5  0.3392    3 0.5  0.2270    4 0.5  0.0058
    6         0.015559       2 0.5  0.4280    1 0.5  0.3392    3 0.5  0.2270    4 0.5  0.0058
    7         0.021685       4 0.5  0.6809    3 0.5  0.2732    1 0.5  0.0266    2 0.5  0.0194
    8         0.021685       4 0.5  0.6809    3 0.5  0.2732    1 0.5  0.0266    2 0.5  0.0194
 -------------------------------------------------------------------------------
 ------------------------
 
 
      ****************************************************************************************************
      *                                                                                                  *
      *                                    Special properties section                                    *
      *                                                                                                  *
      ****************************************************************************************************
 
 
 
 --------------------------------------------------
 
 A comparison between the dipole oscillator strengths in 
 length and velocity gauge will be performed
 
 All dipole oscillator differences above the tolerance of 
  0.100000000000000       will be printed 
 
 Due to basis set deficiency these oscillator may be problematic 
 
 The tolerance is defined as ABS(1-O_l/O_v) 
 O_l : dipole oscillator strength in length gauge
 O_p : dipole oscillator strength in velocity gauge
 
 --------------------------------------------------
 
 No problematic oscillator strengths above the tolerance 
  0.100000000000000       have been found
 
 Electric-Dipole - Electric-Octupole not included
 Electric-Dipole - Magnetic-Quadrupole not included
 ###############################################################################
 ###############################################################################
 ###                                                                         ###
 ###                                                                         ###
 ###    RunFile label nBas                                                   ###
 ###    was used      399 times                                              ###
 ###                                                                         ###
 ###                                                                         ###
 ###############################################################################
 ###############################################################################
--- Stop Module: rassi at Wed Dec 25 09:02:19 2019 /rc=_RC_ALL_IS_WELL_ ---
*** files: UO2_C6H5SO2_C6H5SO2-m1-doublet.rassi-SO-casscf-xmscaspt2.VTZP.rassi.h5 xmldump
    saved to directory /home/vallet/John-sulfinate/U-complexes/UO2_C6H5SO2_C6H5SO2-m1/optg-freq-pbe0/SO-XMS
--- Module rassi spent 3 seconds ---

>>> COPY /home/vallet/John-sulfinate/U-complexes/UO2_C6H5SO2_C6H5SO2-m1/optg-freq-pbe0/SO-XMS/UO2_C6H5SO2_C6H5SO2-m1-doublet.rassi-SO-casscf-xmscaspt2.VTZP.JobMix_doublets JOB001

--- Start Module: rassi at Wed Dec 25 09:02:19 2019 ---
 
()()()()()()()()()()()()()()()()()()()()()()()()()()()()()()()()()()()()()()()()()()()()()()()()()()

                                               &RASSI

                                   only a single process is used
                       available to each process: 32 GB of memory, 8 threads
()()()()()()()()()()()()()()()()()()()()()()()()()()()()()()()()()()()()()()()()()()()()()()()()()()
 
 
      ********************************************************************************
      *                                                                              *
      *                             General data section                             *
      *                                                                              *
      ********************************************************************************
 
   Specific data for JOBIPH file 
 JOB001                                                                         
                                                  
   -------------------------------------
 
   Header from SEWARD:
                                                                               
        Integrals generated by seward 4.2.0  , Tue Dec 24 15:33:04 2019        
 
   CASSCF title (first line only):
       (No title given)                                                        
 
   STATE IRREP:                             1
   SPIN MULTIPLICITY:                       2
   ACTIVE ELECTRONS:                        1
   MAX RAS1 HOLES:                          0
   MAX RAS3 ELECTRONS:                      0
   NR OF CONFIG:                            4
 
   The following data are common to all the states:
   ------------------------------------------------
   (note: frozen counts as inactive, deleted as secondary)
 
      NR of irreps: 1
 
                 Total     No./Irrep 
      Irrep                  1
                             a
 
      INACTIVE     127     127
      ACTIVE         4       4
      SECONDARY    737     737
      BASIS        868     868
 
      RAS1           0       0
      RAS2           4       4
      RAS3           0       0
 
        MATRIX ELEMENTS WILL BE COMPUTED FOR THE FOLLOWING ONE-ELECTRON OPERATOR
 S, UNLESS ZERO BY SYMMETRY.
   (Herm=Hermitian, Anti=Antihermitian, Sing=Singlet operator, Trip=Triplet oper
 ator)
     MLTPL  1   1 (HERMSING)     MLTPL  1   2 (HERMSING)     MLTPL  1   3 (HERMSING)
     MLTPL  2   1 (HERMSING)     MLTPL  2   2 (HERMSING)     MLTPL  2   3 (HERMSING)
     MLTPL  2   4 (HERMSING)     MLTPL  2   5 (HERMSING)     MLTPL  2   6 (HERMSING)
     VELOCITY   1 (ANTISING)     VELOCITY   2 (ANTISING)     VELOCITY   3 (ANTISING)
     ANGMOM     1 (ANTISING)     ANGMOM     2 (ANTISING)     ANGMOM     3 (ANTISING)
     AMFI       1 (ANTITRIP)     AMFI       2 (ANTITRIP)     AMFI       3 (ANTITRIP)
 
       EIGENSTATES OF A SPIN-FREE HAMILTONIAN WILL BE COMPUTED BASED ON:
 
  a Hamiltonian matrix assumed to be diagonal with energies read from the wavefu
 nction file(s).
  SO coupling elements will be added.
       EIGENSTATES OF SPIN-ORBIT HAMILTONIAN WILL BE COMPUTED
        MATRIX ELEMENTS OVER SPIN EIGENSTATES FOR:
     MLTPL  1   1 (HERMSING)     MLTPL  1   2 (HERMSING)     MLTPL  1   3 (HERMSING)
     MLTPL  2   1 (HERMSING)     MLTPL  2   2 (HERMSING)     MLTPL  2   3 (HERMSING)
     MLTPL  2   4 (HERMSING)     MLTPL  2   5 (HERMSING)     MLTPL  2   6 (HERMSING)
     VELOCITY   1 (ANTISING)     VELOCITY   2 (ANTISING)     VELOCITY   3 (ANTISING)
     ANGMOM     1 (ANTISING)     ANGMOM     2 (ANTISING)     ANGMOM     3 (ANTISING)
 
  Nr of states:                     4
 
   State:        1   2   3   4
  JobIph:        1   1   1   1
 Root nr:        1   2   3   4
 
  HAMILTONIAN MATRIX FOR THE ORIGINAL STATES:
 
  Diagonal, with energies
 -29661.86272244 -29661.86002736 -29661.85944517 -29661.85126940
 
      OVERLAP MATRIX FOR THE ORIGINAL STATES:
 
  Diagonal, with elements
      1.00000000      1.00000000      1.00000000      1.00000000
 
::    RASSI State    1     Total energy: -29661.86272244
::    RASSI State    2     Total energy: -29661.86002736
::    RASSI State    3     Total energy: -29661.85944517
::    RASSI State    4     Total energy: -29661.85126940
 
 
 
      ****************************************************************************************************
      *                                                                                                  *
      *                                         Spin-free section                                        *
      *                                                                                                  *
      *                 Note: index according to input order, order according to energy.                 *
      *                                                                                                  *
      ****************************************************************************************************
 
 
 
  SPIN-FREE ENERGIES:
  (Shifted by EVAC (a.u.) =     -29661.8627224369)
 
 SF State       Relative EVAC(au)   Rel lowest level(eV)    D:o, cm**(-1)
 
     1             0.0000000000        0.0000000000              0.0000
     2             0.0026950788        0.0733368308            591.5014
     3             0.0032772671        0.0891789813            719.2770
     4             0.0114530396        0.3116530807           2513.6516
 
++ Dipole transition strengths (spin-free states):
   -----------------------------------------------
     for osc. strength at least  1.00000000E-05
 
  ( Max oscillator strength is only   9.246772799224943E-011 )
--
 
++ Velocity transition strengths (spin-free states):
   -------------------------------------------------
     for osc. strength at least  1.00000000E-05
 
  ( Max oscillator strength is only   1.674061866527650E-007 )
--
 
 --------------------------------------------------
 
 A comparison between the dipole oscillator strengths in 
 length and velocity gauge will be performed
 
 All dipole oscillator differences above the tolerance of 
  0.100000000000000       will be printed 
 
 Due to basis set deficiency these oscillator may be problematic 
 
 The tolerance is defined as ABS(1-O_l/O_v) 
 O_l : dipole oscillator strength in length gauge
 O_p : dipole oscillator strength in velocity gauge
 
 --------------------------------------------------
 
 No problematic oscillator strengths above the tolerance 
  0.100000000000000       have been found
 
 Electric-Dipole - Electric-Octupole not included
 Electric-Dipole - Magnetic-Quadrupole not included
 
 
 
      ****************************************************************************************************
      *                                                                                                  *
      *                                         Spin-orbit section                                       *
      *                                                                                                  *
      ****************************************************************************************************
 
 
 Complex SO-Hamiltonian matrix elements over
 spin components of spin-free eigenstates (SFS):
 (In cm-1. Print threshold:      1.700 cm-1)
 ----------------------------------------------------------------------
 
  I1  S1  MS1    I2  S2  MS2    Real part    Imag part      Absolute
     3  0.5 -0.5    1  0.5 -0.5         0.000      1217.850      1217.850
     3  0.5 -0.5    2  0.5  0.5         0.106         1.755         1.758
     4  0.5  0.5    1  0.5 -0.5        -0.106         1.755         1.758
     4  0.5  0.5    2  0.5  0.5         0.000     -1217.850      1217.850
     5  0.5 -0.5    2  0.5  0.5      1770.610       912.588      1991.953
     5  0.5 -0.5    4  0.5  0.5      -540.902      1103.684      1229.103
     6  0.5  0.5    1  0.5 -0.5     -1770.610       912.588      1991.953
     6  0.5  0.5    3  0.5 -0.5       540.902      1103.684      1229.103
     7  0.5 -0.5    1  0.5 -0.5         0.000         1.703         1.703
     7  0.5 -0.5    2  0.5  0.5       634.500     -1221.239      1376.232
     7  0.5 -0.5    3  0.5 -0.5         0.000        -5.939         5.939
     7  0.5 -0.5    4  0.5  0.5     -2683.116     -1354.127      3005.457
     7  0.5 -0.5    5  0.5 -0.5         0.000     -1082.641      1082.641
     7  0.5 -0.5    6  0.5  0.5         5.755         1.388         5.920
     8  0.5  0.5    1  0.5 -0.5      -634.500     -1221.239      1376.232
     8  0.5  0.5    2  0.5  0.5         0.000        -1.703         1.703
     8  0.5  0.5    3  0.5 -0.5      2683.116     -1354.127      3005.457
     8  0.5  0.5    4  0.5  0.5         0.000         5.939         5.939
     8  0.5  0.5    5  0.5 -0.5        -5.755         1.388         5.920
     8  0.5  0.5    6  0.5  0.5         0.000      1082.641      1082.641
 ----------------------------------------------------------------------
 
       Total energies including SO-coupling:
::    SO-RASSI State    1     Total energy: -29661.87555172
::    SO-RASSI State    2     Total energy: -29661.87555172
::    SO-RASSI State    3     Total energy: -29661.86998088
::    SO-RASSI State    4     Total energy: -29661.86998088
::    SO-RASSI State    5     Total energy: -29661.84710369
::    SO-RASSI State    6     Total energy: -29661.84710369
::    SO-RASSI State    7     Total energy: -29661.84082807
::    SO-RASSI State    8     Total energy: -29661.84082807
 
 
   Eigenvalues of complex Hamiltonian:
   -----------------------------------
 
  (Shifted by EVAC (a.u.) =    -29661.862722437)
 
          Relative EVac(au)    Rel lowest level(eV)    D:o, cm**(-1)
 
     1       -0.0128292800          0.0000000000              0.0000
     2       -0.0128292800          0.0000000000              0.0000
     3       -0.0072584443          0.1515901612           1222.6571
     4       -0.0072584443          0.1515901612           1222.6571
     5        0.0156187448          0.7741101823           6243.6197
     6        0.0156187448          0.7741101823           6243.6197
     7        0.0218943650          0.9448785078           7620.9592
     8        0.0218943650          0.9448785078           7620.9592
 
 
 Weights of the five most important spin-orbit-free states for each spin-orbit s
 tate.
 
 SO State  Total energy (au)           Spin-free states, spin, and weights
 -------------------------------------------------------------------------------
 ------------------------
    1        -0.012829       2 0.5  0.4785    4 0.5  0.2898    1 0.5  0.2100    3 0.5  0.0217
    2        -0.012829       2 0.5  0.4785    4 0.5  0.2898    1 0.5  0.2100    3 0.5  0.0217
    3        -0.007258       3 0.5  0.5194    1 0.5  0.4304    2 0.5  0.0376    4 0.5  0.0126
    4        -0.007258       3 0.5  0.5194    1 0.5  0.4304    2 0.5  0.0376    4 0.5  0.0126
    5         0.015619       3 0.5  0.4338    1 0.5  0.3277    2 0.5  0.2368    4 0.5  0.0018
    6         0.015619       3 0.5  0.4338    1 0.5  0.3277    2 0.5  0.2368    4 0.5  0.0018
    7         0.021894       4 0.5  0.6958    2 0.5  0.2471    1 0.5  0.0319    3 0.5  0.0252
    8         0.021894       4 0.5  0.6958    2 0.5  0.2471    1 0.5  0.0319    3 0.5  0.0252
 -------------------------------------------------------------------------------
 ------------------------
 
 
      ****************************************************************************************************
      *                                                                                                  *
      *                                    Special properties section                                    *
      *                                                                                                  *
      ****************************************************************************************************
 
 
 
 --------------------------------------------------
 
 A comparison between the dipole oscillator strengths in 
 length and velocity gauge will be performed
 
 All dipole oscillator differences above the tolerance of 
  0.100000000000000       will be printed 
 
 Due to basis set deficiency these oscillator may be problematic 
 
 The tolerance is defined as ABS(1-O_l/O_v) 
 O_l : dipole oscillator strength in length gauge
 O_p : dipole oscillator strength in velocity gauge
 
 --------------------------------------------------
 
 No problematic oscillator strengths above the tolerance 
  0.100000000000000       have been found
 
 Electric-Dipole - Electric-Octupole not included
 Electric-Dipole - Magnetic-Quadrupole not included
 ###############################################################################
 ###############################################################################
 ###                                                                         ###
 ###                                                                         ###
 ###    RunFile label nBas                                                   ###
 ###    was used      399 times                                              ###
 ###                                                                         ###
 ###                                                                         ###
 ###############################################################################
 ###############################################################################
--- Stop Module: rassi at Wed Dec 25 09:02:22 2019 /rc=_RC_ALL_IS_WELL_ ---
*** files: UO2_C6H5SO2_C6H5SO2-m1-doublet.rassi-SO-casscf-xmscaspt2.VTZP.rassi.h5 xmldump
    saved to directory /home/vallet/John-sulfinate/U-complexes/UO2_C6H5SO2_C6H5SO2-m1/optg-freq-pbe0/SO-XMS
--- Module rassi spent 2 seconds ---

    Timing: Wall=63027.60 User=252576.90 System=9962.90
