   This run of MOLCAS is using the pymolcas driver

                             OPE
                             OPE          NMOL  CASOP  ENMOLC A   SO
                 OPE        NMOLC        AS  OP EN  MO LC     AS  OP
                OPENM       OL CA        SO  PE NM  OL CA     SOP EN
                OP EN      MO   LC       AS  OP ENMOL  CASO   PENMOL
                OP  EN     MO   LC       AS  OP EN     MO     LC ASO
               OP   E  NMOL  C  AS       OP  EN MO     LC     AS  OP
               OP  E   NMO   LC AS        OPEN  MO     LCASOP EN   M
               O  PEN   MO  LCA  SO
            OPE   NMO   L   CAS    OP
        OPENMOL  CASOP     ENMOL   CASOPE
     OPENMOLCA   SOPENMOLCASOPEN   MOLCASOPE
    OPENMOLCAS   OP           EN   MOL    CAS
    OPENMOLCAS       OP  ENM        O     LCA
    OPENMOLCAS    OPEN  MOLCASO     P  E  NMO
    OPENMOLCAS     OP               E  N  MOL
    OPENMOLCA   SO           PENM   O  L  CAS    OPEN    MO    LCAS
    OPENMOLCA   SOP           ENM   O  L  CAS   OP  EN  MOLC  AS   O
    OPENMOLCA   SOPE           NM      O  LCA   S      OP  EN MO
    OPENMOLC                AS         O  PEN   M      OL  CA  SOPE
    OPENMO        LCASOPE  NMOL        C  ASO   P      ENMOLC     AS
    OPE     NMO      LCA  SO     P     E   NM   OL  CA SO  PE N   MO
          OPENMOLCA            SOPE   NMO        LCAS  O    P  ENMO
     OPENMOLCASOPENMOLCASOPENMOLCASOPENMOLCA
        OPENMOLCASOPENMOLCASOPENMOLCASOPE
            OPENMOLCASOPENMOLCASOPENM
               OPENMOLCASOPENMOLCA        version: 18.09
                   OPENMOLCASO
                       OPE                tag: 259-g52797e1-dirty

 OpenMolcas is free software; you can redistribute it and/or modify it
 under the terms of the GNU Lesser General Public License version 2.1.
 OpenMolcas is distributed in the hope that it will be useful, but it
 is provided "as is" and without any express or implied warranties.
 For more details see the full text of the license in the file
 LICENSE or in <http://www.gnu.org/licenses/>.

                 Copyright (C) The OpenMolcas Authors
           For the author list and the recommended citation,
                   consult the file CONTRIBUTORS.md

           *************************************************
           * pymolcas version py2.05                       *
           *   build e639e37c9a57315123c35f99e509df06      *
           *   (after the EMIL interpreter by V. Veryazov) *
           *************************************************

configuration info
------------------
C Compiler ID: Intel
C flags: -I/share/apps/fftw/3.3.8/include -std=gnu99 -mcmodel=large -qopenmp
Fortran Compiler ID: Intel
Fortran flags: -fpp -mcmodel=large -i8 -r8 -heap-arrays -qopenmp
Definitions: _MOLCAS_;_I8_;_LINUX_;_MKL_;_FDE_
Parallel: OFF (GA=OFF)


   --------------------------------------------------------------------------------------------------------------------------
  |
  |           Project: UO2_CH3SO2_O2-m1-triplet.rassi-SO-casscf-xmscaspt2.VTZP
  |    Submitted from: /home/vallet/John-sulfinate/U-complexes/UO2_CH3SO2_O2-m1/singlet-geom/optg-freq-pbe0/SO-XMS
  |      Scratch area: /state/partition2/vallet/655584.phlam-s-sakura/UO2_CH3SO2_O2-m1-triplet.rassi-SO-casscf-xmscaspt2.VTZP
  |   Save outputs to: /home/vallet/John-sulfinate/U-complexes/UO2_CH3SO2_O2-m1/singlet-geom/optg-freq-pbe0/SO-XMS
  |            Molcas: /home/pcmt/OpenMolcas/OpenMolcas-20190114
  |
  | Scratch area is empty
  |
  |    MOLCAS_DRIVER = /home/pcmt/OpenMolcas/OpenMolcas-20190114/sbin/pymolcas
  |   MOLCAS_LICENSE = /home/pcmt/molcas/license
  |    MOLCAS_MOLDEN = ON
  |    MOLCAS_NPROCS = 1
  |    MOLCAS_SOURCE = /home/pcmt/OpenMolcas/OpenMolcas-20190114
  | MOLCAS_STRUCTURE = 0
  |
   --------------------------------------------------------------------------------------------------------------------------

++ ---------   Input file   ---------

&GATEWAY
   COORD=$HomeDir/UO2_CH3SO2_O2-m1.pbe0.optg-zaxis.xyz
   BASIS=ANO-RCC-VTZP
   Group=Nosym
   ANGM=0.0 0.0 0.0
   RICD

>>> COPY $Project.RunFile $HomeDir

&SEWARD

>>> COPY $HomeDir/UO2_CH3SO2_O2-m1-triplet.casscf.MB.RunFile RUNFIL1

>>> COPY $Project.RunFile RUNFIL2

>>> COPY $HomeDir/UO2_CH3SO2_O2-m1-triplet.casscf.MB.RasOrb_triplets INPORB

&EXPBAS

>>> COPY $Project.ExpOrb $HomeDir/$Project.ExpOrb_triplets

>>> COPY $HomeDir/UO2_CH3SO2_O2-m1-triplet.casscf.MB.RasOrb_singlets INPORB

&EXPBAS

>>> COPY $Project.ExpOrb $HomeDir/$Project.ExpOrb_singlets

>>> COPY $HomeDir/$Project.ExpOrb_triplets INPORB

&RASSCF
   Spin=3
   Symmetry=1
   Nactel=4 0 0
   Inactive=81
   Ras2=6
   CIRoots=8 8 1
   Lumorb

>>> COPY $Project.RasOrb $HomeDir/$Project.RasOrb_triplets

>>> COPY $Project.JobIph $HomeDir/$Project.JobIph_triplets

&CASPT2
    IPEA=0.0
    XMUL= ALL
    THRESHOLDS= 1.0D-09 1.0D-07
    MAXITER=150
    CONVERGENCE=1.0D-6
    IMAG=0.1

>>> COPY $Project.JobMix $HomeDir/$Project.JobMix_triplets

>>> COPY $HomeDir/$Project.ExpOrb_singlets INPORB

&RASSCF
   Spin=1
   Symmetry=1
   Nactel=4 0 0
   Inactive=81
   Ras2=6
   CIRoots=9 9 1
   Lumorb

>>> COPY $Project.RasOrb $HomeDir/$Project.RasOrb_singlets

>>> COPY $Project.JobIph $HomeDir/$Project.JobIph_singlets

&CASPT2
    IPEA=0.0
    XMUL= ALL
    THRESHOLDS= 1.0D-09 1.0D-07
    MAXITER=150
    CONVERGENCE=1.0D-6
    IMAG=0.1

>>> COPY $Project.JobMix $HomeDir/$Project.JobMix_singlets

>>> COPY $HomeDir/$Project.JobIph_triplets JOB001

>>> COPY $HomeDir/$Project.JobIph_singlets JOB002

&RASSI
    EJob
    SPINorbit

>>> COPY $HomeDir/$Project.JobMix_triplets JOB001

>>> COPY $HomeDir/$Project.JobMix_singlets JOB002

&RASSI
    EJob
    SPINorbit

-- ----------------------------------

--- Start Module: gateway at Thu Dec  5 09:06:24 2019 ---
 
()()()()()()()()()()()()()()()()()()()()()()()()()()()()()()()()()()()()()()()()()()()()()()()()()()

                                              &GATEWAY

                                   only a single process is used
                       available to each process: 16 GB of memory, 8 threads
()()()()()()()()()()()()()()()()()()()()()()()()()()()()()()()()()()()()()()()()()()()()()()()()()()
 
 
++    Symmetry information:
      ---------------------
 
                    Character Table for C1 
 
                             E  
                    a        1  x, y, xy, Rz, z, xz, Ry, yz, Rx, I
--
 
 
++    Basis set information:
      ----------------------
 
 
      Basis set label: C.ANO-RCC...4S3P2D1F.
 
      Electronic valence basis set:
      ------------------
      Associated Effective Charge   6.000000 au
      Associated Actual Charge      6.000000 au
      Nuclear Model: Point charge
 
      Shell  nPrim  nBasis  Cartesian Spherical Contaminant
         s      14       4        X                  
         p       9       3        X                  
         d       4       2                 X         
         f       3       1                 X         
 
 
      Basis set label: S.ANO-RCC...5S4P2D1F.
 
      Electronic valence basis set:
      ------------------
      Associated Effective Charge  16.000000 au
      Associated Actual Charge     16.000000 au
      Nuclear Model: Point charge
 
      Shell  nPrim  nBasis  Cartesian Spherical Contaminant
         s      17       5        X                  
         p      12       4        X                  
         d       5       2                 X         
         f       4       1                 X         
 
 
      Basis set label: O.ANO-RCC...4S3P2D1F.
 
      Electronic valence basis set:
      ------------------
      Associated Effective Charge   8.000000 au
      Associated Actual Charge      8.000000 au
      Nuclear Model: Point charge
 
      Shell  nPrim  nBasis  Cartesian Spherical Contaminant
         s      14       4        X                  
         p       9       3        X                  
         d       4       2                 X         
         f       3       1                 X         
 
 
      Basis set label: U.ANO-RCC...9S8P6D4F2G1H.
 
      Electronic valence basis set:
      ------------------
      Associated Effective Charge  92.000000 au
      Associated Actual Charge     92.000000 au
      Nuclear Model: Point charge
 
      Shell  nPrim  nBasis  Cartesian Spherical Contaminant
         s      26       9        X                  
         p      23       8        X                  
         d      17       6                 X         
         f      13       4                 X         
         g       5       2                 X         
         h       3       1                 X         
 
 
      Basis set label: O.ANO-RCC...4S3P2D1F.
 
      Electronic valence basis set:
      ------------------
      Associated Effective Charge   8.000000 au
      Associated Actual Charge      8.000000 au
      Nuclear Model: Point charge
 
      Shell  nPrim  nBasis  Cartesian Spherical Contaminant
         s      14       4        X                  
         p       9       3        X                  
         d       4       2                 X         
         f       3       1                 X         
 
 
      Basis set label: H.ANO-RCC...3S2P1D.
 
      Electronic valence basis set:
      ------------------
      Associated Effective Charge   1.000000 au
      Associated Actual Charge      1.000000 au
      Nuclear Model: Point charge
 
      Shell  nPrim  nBasis  Cartesian Spherical Contaminant
         s       8       3        X                  
         p       4       2        X                  
         d       3       1                 X         
 
 
      Basis set label: O.ANO-RCC...4S3P2D1F.
 
      Electronic valence basis set:
      ------------------
      Associated Effective Charge   8.000000 au
      Associated Actual Charge      8.000000 au
      Nuclear Model: Point charge
 
      Shell  nPrim  nBasis  Cartesian Spherical Contaminant
         s      14       4        X                  
         p       9       3        X                  
         d       4       2                 X         
         f       3       1                 X         
--
 
 
++    Molecular structure info:
      -------------------------
 
                    ************************************************ 
                    **** Cartesian Coordinates / Bohr, Angstrom **** 
                    ************************************************ 
 
     Center  Label                x              y              z                     x              y              z
        1      C1              -6.777125      -0.840512      -3.248987             -3.586300      -0.444780      -1.719290
        2      S2              -5.875177      -0.728659       0.055823             -3.109010      -0.385590       0.029540
        3      O3              -3.874978      -2.826501       0.181357             -2.050550      -1.495720       0.095970
        4      U4               0.000000       0.000000       0.000000              0.000000       0.000000       0.000000
        5      O5               3.610700       1.791309      -0.261595              1.910700       0.947920      -0.138430
        6      O6              -4.448056       1.794276       0.181357             -2.353810       0.949490       0.095970
        7      O7               0.000000       0.000000       3.359895              0.000000       0.000000       1.777980
        8      O8              -0.445824      -0.055293      -3.343341             -0.235920      -0.029260      -1.769220
        9      H9              -8.087952       0.708421      -3.610208             -4.279960       0.374880      -1.910440
       10      H10             -5.042413      -0.625367      -4.340399             -2.668330      -0.330930      -2.296840
       11      H11             -7.669850      -2.662756      -3.610208             -4.058710      -1.409070      -1.910440
       12      O12              3.938888      -0.854988      -0.261595              2.084370      -0.452440      -0.138430
 
                    *************************************** 
                    *    InterNuclear Distances / Bohr    * 
                    *************************************** 
 
               1 C1            2 S2            3 O3            4 U4            5 O5            6 O6    
    1 C1       0.000000
    2 S2       3.427505        0.000000
    3 O3       4.912624        2.901292        0.000000
    4 U4       7.562526        5.920454        4.799735        0.000000
    5 O5      11.124653        9.820023        8.806574        4.039105        0.000000
    6 O6       4.912630        2.901317        4.656179        4.799742        8.070921        0.000000
    7 O7       9.503326        6.779790        5.753926        3.359895        5.418591        5.753932
    8 O8       6.380505        6.440933        5.644660        3.373388        5.418716        5.644667
    9 H9       2.061054        4.516786        6.679880        8.885406       12.216559        5.366926
   10 H10      2.060750        4.475592        5.162768        6.682520        9.866779        5.162771
   11 H11      2.061071        4.516787        5.366921        8.885408       12.581841        6.679900
   12 O12     11.124642        9.820010        8.070909        4.039094        2.666570        8.806568
 
               7 O7            8 O8            9 H9           10 H10          11 H11          12 O12   
    7 O7       0.000000
    8 O8       6.718273        0.000000
    9 H9      10.700429        7.684829        0.000000
   10 H10      9.225591        4.737904        3.404038        0.000000
   11 H11     10.700431        7.684831        3.397005        3.404051        0.000000
   12 O12      5.418582        5.418706       12.581826        9.866769       12.216548        0.000000
 
                    ******************************************* 
                    *    InterNuclear Distances / Angstrom    * 
                    ******************************************* 
 
               1 C1            2 S2            3 O3            4 U4            5 O5            6 O6    
    1 C1       0.000000
    2 S2       1.813757        0.000000
    3 O3       2.599648        1.535298        0.000000
    4 U4       4.001916        3.132969        2.539910        0.000000
    5 O5       5.886913        5.196533        4.660238        2.137403        0.000000
    6 O6       2.599652        1.535311        2.463944        2.539914        4.270947        0.000000
    7 O7       5.028944        3.587710        3.044847        1.777980        2.867395        3.044850
    8 O8       3.376418        3.408395        2.987025        1.785120        2.867461        2.987029
    9 H9       1.090663        2.390180        3.534840        4.701954        6.464725        2.840055
   10 H10      1.090502        2.368381        2.732019        3.536237        5.221274        2.732021
   11 H11      1.090672        2.390181        2.840052        4.701956        6.658024        3.534851
   12 O12      5.886907        5.196526        4.270941        2.137396        1.411088        4.660235
 
               7 O7            8 O8            9 H9           10 H10          11 H11          12 O12   
    7 O7       0.000000
    8 O8       3.555157        0.000000
    9 H9       5.662423        4.066636        0.000000
   10 H10      4.881973        2.507191        1.801339        0.000000
   11 H11      5.662424        4.066638        1.797618        1.801346        0.000000
   12 O12      2.867390        2.867456        6.658016        5.221270        6.464719        0.000000
 
                    ************************************** 
                    *    Valence Bond Angles / Degree    * 
                    ************************************** 
                          Atom centers                 Phi
                      9 H9       1 C1      10 H10      111.35
                      9 H9       1 C1      11 H11      110.99
                     10 H10      1 C1      11 H11      111.35
                      3 O3       2 S2       6 O6       106.73
--
 
 
            Nuclear Potential Energy           1895.18099308 au
 
--- Stop Module: gateway at Thu Dec  5 09:11:21 2019 /rc=_RC_ALL_IS_WELL_ ---
*** files: UO2_CH3SO2_O2-m1-triplet.rassi-SO-casscf-xmscaspt2.VTZP.RICDLib xmldump
    saved to directory /home/vallet/John-sulfinate/U-complexes/UO2_CH3SO2_O2-m1/singlet-geom/optg-freq-pbe0/SO-XMS
--- Module gateway spent 4 minutes 57 seconds ---

>>> COPY UO2_CH3SO2_O2-m1-triplet.rassi-SO-casscf-xmscaspt2.VTZP.RunFile /home/vallet/John-sulfinate/U-complexes/UO2_CH3SO2_O2-m1/singlet-geom/optg-freq-pbe0/SO-XMS

--- Start Module: seward at Thu Dec  5 09:11:21 2019 ---
 
()()()()()()()()()()()()()()()()()()()()()()()()()()()()()()()()()()()()()()()()()()()()()()()()()()

                                              &SEWARD

                                   only a single process is used
                       available to each process: 16 GB of memory, 8 threads
()()()()()()()()()()()()()()()()()()()()()()()()()()()()()()()()()()()()()()()()()()()()()()()()()()
 
               SEWARD will generate:
                  Multipole Moment integrals up to order  2
                  Kinetic Energy integrals
                  Nuclear Attraction integrals (point charge)
                  One-Electron Hamiltonian integrals
                  Velocity integrals
                  Relativistic Douglas-Kroll-Hess integrals:
                    - Parametrization         : EXP
                    - DKH order of Hamiltonian: 2
                    - DKH order of Properties : 0
                         - multipole moment operators
                         - electric potential operators
                         - contact operators
                  Orbital angular momentum around ( 0.0000  0.0000  0.0000 )
                  Atomic mean-field integrals
                  RI decomposed two-electron repulsion integrals stored Cholesky style
                   - acCD auxiliary basis
                   - CD Threshold:   0.10E-03
 
                   Integrals are discarded if absolute value <: 0.10E-13
                   Integral cutoff threshold is set to       <: 0.10E-15
 
            Nuclear Potential Energy           1895.18099308 au
 
 
      Basis set specifications :
      Symmetry species         a  
      Basis functions          406
 
 
 Post_2Center_RI
 Detected lin. dependences in the auxiliary basis.
 # of AuxBas before l. d. removal:   3850
 # of AuxBas after  l. d. removal:   3835
 
 Sorry, Molden does not know how to handle
 functions with angular momentum larger than g
--- Stop Module: seward at Thu Dec  5 09:16:32 2019 /rc=_RC_ALL_IS_WELL_ ---
*** files: UO2_CH3SO2_O2-m1-triplet.rassi-SO-casscf-xmscaspt2.VTZP.GssOrb UO2_CH3SO2_O2-m1-triplet.rassi-SO-casscf-xmscaspt2.VTZP.guessorb.h5 xmldump
    saved to directory /home/vallet/John-sulfinate/U-complexes/UO2_CH3SO2_O2-m1/singlet-geom/optg-freq-pbe0/SO-XMS
--- Module seward spent 5 minutes 10 seconds ---

>>> COPY /home/vallet/John-sulfinate/U-complexes/UO2_CH3SO2_O2-m1/singlet-geom/optg-freq-pbe0/SO-XMS/UO2_CH3SO2_O2-m1-triplet.casscf.MB.RunFile RUNFIL1

>>> COPY UO2_CH3SO2_O2-m1-triplet.rassi-SO-casscf-xmscaspt2.VTZP.RunFile RUNFIL2

>>> COPY /home/vallet/John-sulfinate/U-complexes/UO2_CH3SO2_O2-m1/singlet-geom/optg-freq-pbe0/SO-XMS/UO2_CH3SO2_O2-m1-triplet.casscf.MB.RasOrb_triplets INPORB

--- Start Module: expbas at Thu Dec  5 09:16:33 2019 ---
 
()()()()()()()()()()()()()()()()()()()()()()()()()()()()()()()()()()()()()()()()()()()()()()()()()()

                                              &EXPBAS

                                   only a single process is used
                       available to each process: 16 GB of memory, 8 threads
()()()()()()()()()()()()()()()()()()()()()()()()()()()()()()()()()()()()()()()()()()()()()()()()()()
 

 Header on input orbitals file:
* RASSCF average (pseudo-natural) orbitals

 Information from input runfile
           Number of symmetries    1
      Number of basis functions  106

 Information from expanded basis set runfile
           Number of symmetries    1
      Number of basis functions  406
 New orbitals have been built in file EXPORB
--- Stop Module: expbas at Thu Dec  5 09:16:33 2019 /rc=_RC_ALL_IS_WELL_ ---
*** files: UO2_CH3SO2_O2-m1-triplet.rassi-SO-casscf-xmscaspt2.VTZP.ExpOrb xmldump
    saved to directory /home/vallet/John-sulfinate/U-complexes/UO2_CH3SO2_O2-m1/singlet-geom/optg-freq-pbe0/SO-XMS

>>> COPY UO2_CH3SO2_O2-m1-triplet.rassi-SO-casscf-xmscaspt2.VTZP.ExpOrb /home/vallet/John-sulfinate/U-complexes/UO2_CH3SO2_O2-m1/singlet-geom/optg-freq-pbe0/SO-XMS/UO2_CH3SO2_O2-m1-triplet.rassi-SO-casscf-xmscaspt2.VTZP.ExpOrb_triplets

>>> COPY /home/vallet/John-sulfinate/U-complexes/UO2_CH3SO2_O2-m1/singlet-geom/optg-freq-pbe0/SO-XMS/UO2_CH3SO2_O2-m1-triplet.casscf.MB.RasOrb_singlets INPORB

--- Start Module: expbas at Thu Dec  5 09:16:33 2019 ---
 
()()()()()()()()()()()()()()()()()()()()()()()()()()()()()()()()()()()()()()()()()()()()()()()()()()

                                              &EXPBAS

                                   only a single process is used
                       available to each process: 16 GB of memory, 8 threads
()()()()()()()()()()()()()()()()()()()()()()()()()()()()()()()()()()()()()()()()()()()()()()()()()()
 

 Header on input orbitals file:
* RASSCF average (pseudo-natural) orbitals

 Information from input runfile
           Number of symmetries    1
      Number of basis functions  106

 Information from expanded basis set runfile
           Number of symmetries    1
      Number of basis functions  406
 New orbitals have been built in file EXPORB
--- Stop Module: expbas at Thu Dec  5 09:16:33 2019 /rc=_RC_ALL_IS_WELL_ ---
*** files: UO2_CH3SO2_O2-m1-triplet.rassi-SO-casscf-xmscaspt2.VTZP.ExpOrb xmldump
    saved to directory /home/vallet/John-sulfinate/U-complexes/UO2_CH3SO2_O2-m1/singlet-geom/optg-freq-pbe0/SO-XMS

>>> COPY UO2_CH3SO2_O2-m1-triplet.rassi-SO-casscf-xmscaspt2.VTZP.ExpOrb /home/vallet/John-sulfinate/U-complexes/UO2_CH3SO2_O2-m1/singlet-geom/optg-freq-pbe0/SO-XMS/UO2_CH3SO2_O2-m1-triplet.rassi-SO-casscf-xmscaspt2.VTZP.ExpOrb_singlets

>>> COPY /home/vallet/John-sulfinate/U-complexes/UO2_CH3SO2_O2-m1/singlet-geom/optg-freq-pbe0/SO-XMS/UO2_CH3SO2_O2-m1-triplet.rassi-SO-casscf-xmscaspt2.VTZP.ExpOrb_triplets INPORB

--- Start Module: rasscf at Thu Dec  5 09:16:34 2019 ---
 
()()()()()()()()()()()()()()()()()()()()()()()()()()()()()()()()()()()()()()()()()()()()()()()()()()

                                              &RASSCF

                                   only a single process is used
                       available to each process: 16 GB of memory, 8 threads
()()()()()()()()()()()()()()()()()()()()()()()()()()()()()()()()()()()()()()()()()()()()()()()()()()
 
 
      Header of the ONEINT file:
      --------------------------
      
      Integrals generated by seward 4.2.0  , Thu Dec  5 09:11:21 2019
 
 
      OrdInt status: non-squared
 
 
      Cartesian coordinates in Angstrom:
      -----------------------------------------------------
      No.  Label        X            Y            Z        
      -----------------------------------------------------
       1   C1        -3.58630000  -0.44478000  -1.71929000
       2   S2        -3.10901000  -0.38559000   0.02954000
       3   O3        -2.05055000  -1.49572000   0.09597000
       4   U4         0.00000000   0.00000000   0.00000000
       5   O5         1.91070000   0.94792000  -0.13843000
       6   O6        -2.35381000   0.94949000   0.09597000
       7   O7         0.00000000   0.00000000   1.77798000
       8   O8        -0.23592000  -0.02926000  -1.76922000
       9   H9        -4.27996000   0.37488000  -1.91044000
      10   H10       -2.66833000  -0.33093000  -2.29684000
      11   H11       -4.05871000  -1.40907000  -1.91044000
      12   O12        2.08437000  -0.45244000  -0.13843000
      -----------------------------------------------------
      Nuclear repulsion energy = 1895.18099308
 
++    Wave function specifications:
      -----------------------------
 
      Number of closed shell electrons         162
      Number of electrons in active shells       4
      Max number of holes in RAS1 space          0
      Max nr of electrons in RAS3 space          0
      Number of inactive orbitals               81
      Number of active orbitals                  6
      Number of secondary orbitals             319
      Spin quantum number                      1.0
      State symmetry                             1
--
 
++    Orbital specifications:
      -----------------------
 
      Symmetry species                           1
                                                 a
      Frozen orbitals                            0
      Inactive orbitals                         81
      Active orbitals                            6
      RAS1 orbitals                              0
      RAS2 orbitals                              6
      RAS3 orbitals                              0
      Secondary orbitals                       319
      Deleted orbitals                           0
      Number of basis functions                406
--
 
++    CI expansion specifications:
      ----------------------------
 
      Number of CSFs                           105
      Number of determinants                   120
      Number of root(s) required                 8
      Root chosen for geometry opt.              8
      CI roots used                              1     2     3     4     5     6     7     8
      weights                                0.125 0.125 0.125 0.125 0.125 0.125 0.125 0.125
      highest root included in the CI            8
      max. size of the explicit Hamiltonian    105
--
 
++    Optimization specifications:
      ----------------------------
 
      RASSCF algorithm: LK RI/DF
      Maximum number of macro iterations       200
      Maximum number of SX iterations          100
      Threshold for RASSCF energy            0.100E-07
      Threshold for max MO rotation          0.100E+00
      Threshold for max BLB element          0.100E-03
      Level shift parameter                  0.500E+00
      Make Quasi-Newton update
--
 
      The MO-coefficients are taken from the file:
      INPORB                                                                                                                          
      Title:Basis set expanded orbital file EXPORB                                         
 
      Total molecular charge   -1.00
 
      ************************************************************************************************************************
      *                                                                                                                      *
      *                                            Wave function control section                                             *
      *                                                                                                                      *
      ************************************************************************************************************************
 
 
                                         RASSCF iterations: Energy and convergence statistics
                                         ----------------------------------------------------
 
      Iter CI   SX   CI       RASSCF       Energy    max ROT     max BLB   max BLB  Level Ln srch  Step   QN   Walltime
          iter iter root      energy       change     param      element    value   shift minimum  type update hh:mm:ss
 Nr of preliminary CI iterations:   1
      Total energies have been shifted. Add               -28000.00 au
        1   1   18    0  -837.03718689    0.00E+00   0.44E-01   56 140 1 -0.25E+00*  0.57   0.00    SX    NO    0:03:08
        2   1   24    0  -837.64197491   -0.60E+00*  0.27E-01   76 204 1  0.91E-01*  0.61   0.00    SX    NO    0:01:31
        3   1   23    0  -837.77308501   -0.13E+00*  0.19E-01   71 101 1 -0.58E-01*  0.59   0.00    SX    NO    0:01:33
        4   1   20    0  -837.81361827   -0.41E-01*  0.13E-01   71 101 1 -0.40E-01*  0.60   0.00    SX    NO    0:01:37
        5   1   19    0  -837.82827749   -0.15E-01*  0.17E-01   71 101 1 -0.27E-01*  0.59   2.50    LS   YES    0:01:34
        6   1   19    0  -837.83675725   -0.85E-02* -0.86E-02   78 101 1 -0.15E-01*  0.58   1.22    QN   YES    0:01:37
        7   1   17    0  -837.83870534   -0.19E-02* -0.49E-02   78 101 1 -0.70E-02*  0.59   1.09    QN   YES    0:01:39
        8   1   17    0  -837.83933657   -0.63E-03* -0.27E-02   78 101 1 -0.30E-02*  0.59   1.57    LS   YES    0:01:41
        9   1   17    0  -837.83943106   -0.94E-04* -0.22E-02   71 101 1  0.21E-02*  0.59   1.01    QN   YES    0:01:44
       10   1   15    0  -837.83953128   -0.10E-03* -0.30E-02   71 140 1 -0.73E-03*  0.59   1.45    QN   YES    0:01:42
       11   1   14    0  -837.83956026   -0.29E-04* -0.32E-02   62  94 1 -0.53E-03*  0.59   1.43    QN   YES    0:02:32
       12   1   13    0  -837.83957045   -0.10E-04* -0.37E-02   68  82 1  0.27E-03*  0.59   1.60    QN   YES    0:02:53
       13   1   12    0  -837.83957607   -0.56E-05* -0.41E-02   66  90 1  0.22E-03*  0.59   1.68    QN   YES    0:03:13
       14   1   12    0  -837.83957994   -0.39E-05*  0.44E-02   62  94 1  0.25E-03*  0.59   1.75    QN   YES    0:03:14
       15   1   12    0  -837.83958273   -0.28E-05*  0.33E-02   62  94 1  0.24E-03*  0.59   1.62    QN   YES    0:03:47
       16   1   11    0  -837.83958427   -0.15E-05* -0.20E-02   81  90 1 -0.15E-03*  0.59   1.56    QN   YES    0:03:17
       17   1   11    0  -837.83958501   -0.74E-06* -0.12E-02   81  90 1 -0.12E-03*  0.59   1.55    QN   YES    0:03:18
       18   1   10    0  -837.83958537   -0.37E-06* -0.82E-03   68  82 1 -0.76E-04   0.59   1.60    QN   YES    0:03:18
       19   1   10    0  -837.83958558   -0.20E-06* -0.55E-03   62  94 1 -0.57E-04   0.59   1.56    QN   YES    0:03:13
       20   1    9    0  -837.83958568   -0.10E-06* -0.30E-03   81 134 1  0.27E-04   0.59   1.50    QN   YES    0:03:18
       21   1    9    0  -837.83958572   -0.42E-07* -0.12E-03   81  90 1  0.28E-04   0.59   1.47    QN   YES    0:03:12
       22   1    8    0  -837.83958573   -0.15E-07*  0.74E-04   81  90 1  0.17E-04   0.59   1.41    QN   YES    0:03:06
       23   1    7    0  -837.83958574   -0.52E-08   0.62E-04   81  90 1  0.83E-05   0.59   1.35    QN   YES    0:03:09
      Convergence after 23 iterations
       24   1    7    0  -837.83958574   -0.19E-08   0.62E-04   80  85 1  0.54E-05   0.59   1.35    QN   YES    0:03:10
 
      ************************************************************************************************************************
                                                      Wave function printout:
                       occupation of active orbitals, and spin coupling of open shells (u,d: Spin up or down)
      ************************************************************************************************************************
 
      Note: transformation to natural orbitals
      has been made, which may change the order of the CSFs.
 
      printout of CI-coefficients larger than  0.05 for root  1
      energy=  -28837.864244
      conf/sym  111111     Coeff  Weight
             4  2u0u00   0.80061 0.64098
             5  2u00u0   0.59826 0.35792
 
      printout of CI-coefficients larger than  0.05 for root  2
      energy=  -28837.860936
      conf/sym  111111     Coeff  Weight
             4  2u0u00  -0.59828 0.35794
             5  2u00u0   0.80062 0.64100
 
      printout of CI-coefficients larger than  0.05 for root  3
      energy=  -28837.858041
      conf/sym  111111     Coeff  Weight
             1  2uu000  -0.14758 0.02178
             6  2u000u   0.98831 0.97675
 
      printout of CI-coefficients larger than  0.05 for root  4
      energy=  -28837.845649
      conf/sym  111111     Coeff  Weight
             1  2uu000   0.98682 0.97381
             6  2u000u   0.14778 0.02184
             8  u200u0  -0.06290 0.00396
 
      printout of CI-coefficients larger than  0.05 for root  5
      energy=  -28837.827518
      conf/sym  111111     Coeff  Weight
             7  u20u00  -0.79670 0.63473
             8  u200u0  -0.60180 0.36216
 
      printout of CI-coefficients larger than  0.05 for root  6
      energy=  -28837.824447
      conf/sym  111111     Coeff  Weight
             2  u2u000   0.17337 0.03006
             8  u200u0   0.06753 0.00456
             9  u2000u  -0.98158 0.96350
 
      printout of CI-coefficients larger than  0.05 for root  7
      energy=  -28837.824133
      conf/sym  111111     Coeff  Weight
             7  u20u00   0.60251 0.36302
             8  u200u0  -0.79312 0.62904
             9  u2000u  -0.06932 0.00481
 
      printout of CI-coefficients larger than  0.05 for root  8
      energy=  -28837.811718
      conf/sym  111111     Coeff  Weight
             2  u2u000  -0.98413 0.96851
             9  u2000u  -0.17475 0.03054
 
      Natural orbitals and occupation numbers for root  1
      sym 1:   1.999135   1.000728   0.000097   0.999233   0.000037   0.000770
 
      Natural orbitals and occupation numbers for root  2
      sym 1:   1.999131   1.000730   0.000102   0.000052   0.999223   0.000761
 
      Natural orbitals and occupation numbers for root  3
      sym 1:   1.998678   1.001176   0.000054   0.001260   0.000091   0.998741
 
      Natural orbitals and occupation numbers for root  4
      sym 1:   1.995934   1.003993   0.995959   0.000105   0.004004   0.000005
 
      Natural orbitals and occupation numbers for root  5
      sym 1:   1.002671   1.997259   0.002704   0.997313   0.000028   0.000025
 
      Natural orbitals and occupation numbers for root  6
      sym 1:   1.000774   1.999135   0.000026   0.000827   0.000064   0.999174
 
      Natural orbitals and occupation numbers for root  7
      sym 1:   1.002477   1.997451   0.002513   0.000030   0.997498   0.000031
 
      Natural orbitals and occupation numbers for root  8
      sym 1:   1.000694   1.999285   0.999302   0.000007   0.000706   0.000005
 
      ************************************************************************************************************************
      *                                                                                                                      *
      *                                                    Final results                                                     *
      *                                                                                                                      *
      ************************************************************************************************************************
 
 
++    Wave function specifications:
      -----------------------------
 
      Number of closed shell electrons         162
      Number of electrons in active shells       4
      Max number of holes in RAS1 space          0
      Max nr of electrons in RAS3 space          0
      Number of inactive orbitals               81
      Number of active orbitals                  6
      Number of secondary orbitals             319
      Spin quantum number                      1.0
      State symmetry                             1
--
 
++    Orbital specifications:
      -----------------------
 
      Symmetry species                           1
                                                 a
      Frozen orbitals                            0
      Inactive orbitals                         81
      Active orbitals                            6
      RAS1 orbitals                              0
      RAS2 orbitals                              6
      RAS3 orbitals                              0
      Secondary orbitals                       319
      Deleted orbitals                           0
      Number of basis functions                406
--
 
++    CI expansion specifications:
      ----------------------------
 
      Number of CSFs                           105
      Number of determinants                   120
      Number of root(s) required                 8
      CI roots used                              1     2     3     4     5     6     7     8
      weights                                0.125 0.125 0.125 0.125 0.125 0.125 0.125 0.125
      highest root included in the CI            8
      Root passed to geometry opt.               8
--
 
++    Final optimization conditions:
      ------------------------------
 
      Average CI energy                          -28837.83958574
      RASSCF energy for state  8                 -28837.81171805
      Super-CI energy                                -0.00000000
      RASSCF energy change                           -0.00000000
      Max change in MO coefficients              -0.638E-04
      Max non-diagonal density matrix element     0.623E-04
      Maximum BLB matrix element                  0.538E-05
      (orbital pair  80,  85 in symmetry   1)
      Norm of electronic gradient            0.171E+00
--
 
 
      Final state energy(ies):
      ------------------------
 
::    RASSCF root number  1 Total energy: -28837.86424390
::    RASSCF root number  2 Total energy: -28837.86093559
::    RASSCF root number  3 Total energy: -28837.85804136
::    RASSCF root number  4 Total energy: -28837.84564949
::    RASSCF root number  5 Total energy: -28837.82751754
::    RASSCF root number  6 Total energy: -28837.82444709
::    RASSCF root number  7 Total energy: -28837.82413292
::    RASSCF root number  8 Total energy: -28837.81171805
 
++    Molecular orbitals:
      -------------------
 
      Pseudonatural active orbitals and approximate occupation numbers
 
 
      MOLECULAR ORBITALS FOR SYMMETRY SPECIES 1: a  
 
      INDEX  ENERGY  OCCUPATION COEFFICIENTS ...
          1-4260.1809    2.0000                                                                                                           
                95 U4     1s     ( 1.0000)
          2 -804.1476    2.0000                                                                                                           
                96 U4     2s     ( 1.0000)
          3 -674.8189    2.0000                                                                                                           
               120 U4     2pz    ( 0.9981)
          4 -674.8186    2.0000                                                                                                           
               104 U4     2px    ( 0.9981)
          5 -674.8181    2.0000                                                                                                           
               112 U4     2py    ( 0.9999)
          6 -206.1968    2.0000                                                                                                           
                97 U4     3s     ( 1.0000)
          7 -169.5964    2.0000                                                                                                           
               105 U4     3px    ( 0.9967)
          8 -169.5958    2.0000                                                                                                           
               113 U4     3py    ( 0.9989)
          9 -169.5906    2.0000                                                                                                           
               121 U4     3pz    ( 0.9978)
         10 -135.0199    2.0000                                                                                                           
               128 U4     3d2-   ( 0.4260) 152 U4     3d2+   ( 0.9022)
         11 -135.0199    2.0000                                                                                                           
               128 U4     3d2-   ( 0.9021) 152 U4     3d2+   (-0.4260)
         12 -135.0181    2.0000                                                                                                           
               134 U4     3d1-   ( 0.2341) 140 U4     3d0    (-0.1153) 146 U4     3d1+   ( 0.9631)
         13 -135.0180    2.0000                                                                                                           
               134 U4     3d1-   ( 0.9697) 146 U4     3d1+   (-0.2342)
         14 -135.0170    2.0000                                                                                                           
               140 U4     3d0    ( 0.9931) 146 U4     3d1+   ( 0.1160)
         15  -92.2444    2.0000                                                                                                           
                31 S2     1s     ( 1.0000)
         16  -54.1888    2.0000                                                                                                           
                98 U4     4s     ( 1.0000)
         17  -41.9709    2.0000                                                                                                           
               106 U4     4px    ( 0.9958)
         18  -41.9701    2.0000                                                                                                           
               114 U4     4py    ( 0.9980)
         19  -41.9600    2.0000                                                                                                           
               122 U4     4pz    ( 0.9978)
         20  -28.7310    2.0000                                                                                                           
               129 U4     4d2-   (-0.9348) 153 U4     4d2+   ( 0.3486)
         21  -28.7307    2.0000                                                                                                           
               129 U4     4d2-   ( 0.3486) 153 U4     4d2+   ( 0.9342)
         22  -28.7254    2.0000                                                                                                           
               141 U4     4d0    (-0.1160) 147 U4     4d1+   ( 0.9899)
         23  -28.7252    2.0000                                                                                                           
               135 U4     4d1-   ( 0.9965)
         24  -28.7228    2.0000                                                                                                           
               141 U4     4d0    ( 0.9928) 147 U4     4d1+   ( 0.1133)
         25  -20.5595    2.0000                                                                                                           
               215 O5     1s     (-0.9996)
         26  -20.4680    2.0000                                                                                                           
               377 O12    1s     ( 0.9994)
         27  -20.3953    2.0000                                                                                                           
                65 O3     1s     (-0.9994)
         28  -20.3946    2.0000                                                                                                           
               245 O6     1s     ( 0.9994)
         29  -20.3522    2.0000                                                                                                           
               305 O8     1s     ( 0.9998)
         30  -20.3517    2.0000                                                                                                           
               275 O7     1s     ( 0.9998)
         31  -14.9425    2.0000                                                                                                           
               158 U4     4f3-   ( 0.8798) 182 U4     4f3+   (-0.4668)
         32  -14.9424    2.0000                                                                                                           
               158 U4     4f3-   ( 0.4670) 182 U4     4f3+   ( 0.8803)
         33  -14.9395    2.0000                                                                                                           
               162 U4     4f2-   (-0.3120) 170 U4     4f0    ( 0.8761) 174 U4     4f1+   ( 0.1102) 178 U4     4f2+   ( 0.3441)
      
         34  -14.9391    2.0000                                                                                                           
               162 U4     4f2-   ( 0.9389) 170 U4     4f0    ( 0.2729) 178 U4     4f2+   ( 0.1709)
         35  -14.9389    2.0000                                                                                                           
               170 U4     4f0    (-0.3634) 174 U4     4f1+   (-0.1555) 178 U4     4f2+   ( 0.9135)
         36  -14.9307    2.0000                                                                                                           
               166 U4     4f1-   (-0.1070) 170 U4     4f0    (-0.1566) 174 U4     4f1+   ( 0.9761) 178 U4     4f2+   ( 0.1050)
      
         37  -14.9307    2.0000                                                                                                           
               162 U4     4f2-   ( 0.1074) 166 U4     4f1-   ( 0.9876) 174 U4     4f1+   ( 0.1029)
         38  -12.5136    2.0000                                                                                                           
                99 U4     5s     ( 1.0004)
         39  -11.1190    2.0000                                                                                                           
                 1 C1     1s     ( 1.0010)
         40   -8.9850    2.0000                                                                                                           
                32 S2     2s     ( 0.9991)
         41   -8.6095    2.0000                                                                                                           
               123 U4     5pz    ( 0.9974)
         42   -8.6041    2.0000                                                                                                           
               107 U4     5px    ( 0.9981)
         43   -8.5998    2.0000                                                                                                           
               115 U4     5py    ( 0.9999)
         44   -6.6174    2.0000                                                                                                           
                36 S2     2px    (-0.1338)  40 S2     2py    ( 0.9914)
         45   -6.6173    2.0000                                                                                                           
                36 S2     2px    ( 0.6005)  44 S2     2pz    ( 0.7950)
         46   -6.6154    2.0000                                                                                                           
                36 S2     2px    (-0.7884)  44 S2     2pz    ( 0.6067)
         47   -4.0881    2.0000                                                                                                           
               142 U4     5d0    ( 0.9920) 148 U4     5d1+   ( 0.1122)
         48   -4.0777    2.0000                                                                                                           
               136 U4     5d1-   ( 0.1682) 142 U4     5d0    (-0.1128) 148 U4     5d1+   ( 0.9767)
         49   -4.0765    2.0000                                                                                                           
               136 U4     5d1-   ( 0.9834) 148 U4     5d1+   (-0.1688)
         50   -4.0689    2.0000                                                                                                           
               130 U4     5d2-   ( 0.2867) 154 U4     5d2+   ( 0.9558)
         51   -4.0681    2.0000                                                                                                           
               130 U4     5d2-   ( 0.9559) 154 U4     5d2+   (-0.2867)
         52   -2.0255    2.0000                                                                                                           
               100 U4     6s     ( 0.9605)
         53   -1.3610    2.0000                                                                                                           
               108 U4     6px    ( 0.1946) 216 O5     2s     ( 0.6142) 222 O5     2py    (-0.1195) 378 O12    2s     ( 0.4995)
               384 O12    2py    ( 0.1046)
         54   -1.2857    2.0000                                                                                                           
               124 U4     6pz    ( 0.5264) 276 O7     2s     ( 0.4340) 285 O7     2pz    (-0.1247) 306 O8     2s     (-0.4354)
               315 O8     2pz    (-0.1232)
         55   -1.2509    2.0000                                                                                                           
                33 S2     3s     ( 0.3549)  66 O3     2s     ( 0.4885) 246 O6     2s     ( 0.4871)
         56   -1.1430    2.0000                                                                                                           
                41 S2     3py    ( 0.2012)  66 O3     2s     (-0.5925) 246 O6     2s     ( 0.5934)
         57   -1.0554    2.0000                                                                                                           
               100 U4     6s     (-0.2687) 108 U4     6px    (-0.1249) 143 U4     6d0    ( 0.1343) 216 O5     2s     ( 0.1074)
               276 O7     2s     ( 0.6253) 306 O8     2s     ( 0.6356)
         58   -1.0270    2.0000                                                                                                           
               108 U4     6px    (-0.1189) 116 U4     6py    ( 0.4801) 216 O5     2s     ( 0.5938) 222 O5     2py    ( 0.1089)
               378 O12    2s     (-0.6210)
         59   -0.9412    2.0000                                                                                                           
                 2 C1     2s     (-0.1088)  33 S2     3s     (-0.1442) 108 U4     6px    (-0.8245) 116 U4     6py    (-0.2748)
               216 O5     2s     ( 0.2221) 378 O12    2s     ( 0.1614) 381 O12    2px    ( 0.1233)
         60   -0.9153    2.0000                                                                                                           
               108 U4     6px    (-0.2209) 116 U4     6py    ( 0.7856) 216 O5     2s     (-0.3957) 378 O12    2s     ( 0.4718)
      
         61   -0.8718    2.0000                                                                                                           
                 2 C1     2s     ( 0.5958)  33 S2     3s     ( 0.2705)  37 S2     3px    (-0.1217)  45 S2     3pz    (-0.1743)
                66 O3     2s     (-0.2162) 108 U4     6px    (-0.1896) 246 O6     2s     (-0.2170) 335 H9     1s     ( 0.1243)
               363 H11    1s     ( 0.1243)
         62   -0.7347    2.0000                                                                                                           
               124 U4     6pz    (-0.7028) 171 U4     5f0    ( 0.1100) 276 O7     2s     ( 0.5568) 285 O7     2pz    ( 0.1833)
               306 O8     2s     (-0.5467) 315 O8     2pz    ( 0.1839)
         63   -0.6807    2.0000                                                                                                           
                 2 C1     2s     ( 0.3129)  11 C1     2pz    (-0.1899)  33 S2     3s     (-0.6507)  66 O3     2s     ( 0.3896)
                69 O3     2px    ( 0.1708)  72 O3     2py    (-0.1373) 246 O6     2s     ( 0.3889) 249 O6     2px    ( 0.1322)
               252 O6     2py    ( 0.1752) 335 H9     1s     ( 0.1026) 363 H11    1s     ( 0.1027)
         64   -0.5013    2.0000                                                                                                           
                 5 C1     2px    ( 0.3426)  33 S2     3s     (-0.1149)  37 S2     3px    ( 0.2572)  45 S2     3pz    (-0.2542)
                66 O3     2s     (-0.1103)  72 O3     2py    ( 0.1997)  75 O3     2pz    (-0.2448) 249 O6     2px    ( 0.1373)
               252 O6     2py    (-0.1612) 255 O6     2pz    (-0.2396) 335 H9     1s     (-0.1764) 349 H10    1s     ( 0.2544)
               363 H11    1s     (-0.1574) 381 O12    2px    (-0.1346)
         65   -0.4917    2.0000                                                                                                           
                 8 C1     2py    (-0.3493)  41 S2     3py    (-0.3296)  66 O3     2s     (-0.2539)  69 O3     2px    (-0.3352)
                72 O3     2py    ( 0.1200) 246 O6     2s     ( 0.2393) 249 O6     2px    ( 0.3013) 252 O6     2py    ( 0.1785)
               335 H9     1s     (-0.2548) 363 H11    1s     ( 0.2799)
         66   -0.4861    2.0000                                                                                                           
                11 C1     2pz    ( 0.1135)  37 S2     3px    (-0.1036)  45 S2     3pz    (-0.1390)  72 O3     2py    (-0.1310)
                75 O3     2pz    (-0.1086) 216 O5     2s     ( 0.1771) 222 O5     2py    ( 0.6254) 252 O6     2py    ( 0.1268)
               255 O6     2pz    (-0.1079) 378 O12    2s     ( 0.3336) 381 O12    2px    ( 0.1383) 384 O12    2py    (-0.4751)
      
         67   -0.4839    2.0000                                                                                                           
                 2 C1     2s     ( 0.1054)  11 C1     2pz    (-0.2566)  37 S2     3px    ( 0.2625)  45 S2     3pz    ( 0.2759)
                66 O3     2s     (-0.1633)  72 O3     2py    ( 0.3011)  75 O3     2pz    ( 0.2158) 222 O5     2py    ( 0.2873)
               246 O6     2s     (-0.1950) 252 O6     2py    (-0.3062) 255 O6     2pz    ( 0.2037) 378 O12    2s     ( 0.1282)
               381 O12    2px    (-0.1043) 384 O12    2py    (-0.2334)
         68   -0.4601    2.0000                                                                                                           
               149 U4     6d1+   ( 0.1041) 225 O5     2pz    ( 0.2593) 279 O7     2px    ( 0.1445) 285 O7     2pz    ( 0.1038)
               309 O8     2px    (-0.1216) 315 O8     2pz    ( 0.1259) 387 O12    2pz    ( 0.8032)
         69   -0.4434    2.0000                                                                                                           
                 5 C1     2px    (-0.1742)   8 C1     2py    ( 0.3071)  11 C1     2pz    ( 0.1118)  41 S2     3py    (-0.2458)
                66 O3     2s     (-0.1488)  69 O3     2px    (-0.1578)  72 O3     2py    ( 0.1405) 108 U4     6px    (-0.1004)
               219 O5     2px    (-0.1008) 246 O6     2s     ( 0.1569) 249 O6     2px    ( 0.3059) 252 O6     2py    ( 0.1643)
               255 O6     2pz    (-0.1106) 335 H9     1s     ( 0.3131) 349 H10    1s     (-0.1534) 363 H11    1s     (-0.2187)
               381 O12    2px    (-0.3908)
         70   -0.4391    2.0000                                                                                                           
                 5 C1     2px    ( 0.1798)   8 C1     2py    ( 0.2440)  11 C1     2pz    (-0.1599)  41 S2     3py    (-0.1984)
                45 S2     3pz    ( 0.1026)  66 O3     2s     (-0.1348)  69 O3     2px    (-0.3330)  75 O3     2pz    ( 0.1162)
               108 U4     6px    ( 0.1296) 143 U4     6d0    ( 0.1032) 219 O5     2px    ( 0.1396) 246 O6     2s     ( 0.1391)
               252 O6     2py    ( 0.1753) 335 H9     1s     ( 0.1042) 349 H10    1s     ( 0.2324) 363 H11    1s     (-0.2564)
               381 O12    2px    ( 0.4868)
         71   -0.4137    2.0000                                                                                                           
                 5 C1     2px    (-0.2944)  11 C1     2pz    ( 0.1102)  33 S2     3s     (-0.1690)  37 S2     3px    ( 0.2802)
                45 S2     3pz    (-0.1532)  72 O3     2py    ( 0.2522)  75 O3     2pz    (-0.1928) 108 U4     6px    ( 0.1919)
               219 O5     2px    ( 0.1104) 249 O6     2px    ( 0.1506) 252 O6     2py    (-0.1849) 255 O6     2pz    (-0.1928)
               279 O7     2px    ( 0.1440) 309 O8     2px    ( 0.1309) 335 H9     1s     ( 0.1513) 349 H10    1s     (-0.2953)
               363 H11    1s     ( 0.1276) 381 O12    2px    ( 0.4318)
         72   -0.3558    2.0000                                                                                                           
                75 O3     2pz    ( 0.3943) 137 U4     6d1-   (-0.2149) 255 O6     2pz    (-0.3907) 282 O7     2py    (-0.4460)
               312 O8     2py    ( 0.4608)
         73   -0.3429    2.0000                                                                                                           
                 5 C1     2px    ( 0.1142)  11 C1     2pz    ( 0.1226)  37 S2     3px    (-0.1991)  69 O3     2px    ( 0.2800)
                75 O3     2pz    ( 0.1277) 100 U4     6s     ( 0.1419) 143 U4     6d0    (-0.1825) 149 U4     6d1+   (-0.1079)
               249 O6     2px    ( 0.2571) 255 O6     2pz    ( 0.1967) 276 O7     2s     ( 0.1319) 279 O7     2px    (-0.1055)
               285 O7     2pz    ( 0.3943) 306 O8     2s     ( 0.1247) 309 O8     2px    ( 0.2971) 315 O8     2pz    (-0.3805)
               381 O12    2px    ( 0.2591) 387 O12    2pz    ( 0.1083)
         74   -0.3318    2.0000                                                                                                           
                45 S2     3pz    (-0.1303) 100 U4     6s     (-0.1722) 143 U4     6d0    ( 0.1861) 149 U4     6d1+   (-0.1377)
               255 O6     2pz    ( 0.1228) 276 O7     2s     (-0.1191) 279 O7     2px    (-0.4484) 285 O7     2pz    (-0.3305)
               306 O8     2s     (-0.1210) 309 O8     2px    ( 0.4814) 312 O8     2py    ( 0.1041) 315 O8     2pz    ( 0.3468)
               387 O12    2pz    ( 0.2358)
         75   -0.3257    2.0000                                                                                                           
                72 O3     2py    ( 0.2117)  75 O3     2pz    (-0.4980) 137 U4     6d1-   (-0.1491) 249 O6     2px    (-0.2311)
               252 O6     2py    ( 0.1868) 255 O6     2pz    ( 0.4409) 282 O7     2py    (-0.3577) 309 O8     2px    (-0.1305)
               312 O8     2py    ( 0.3697)
         76   -0.3138    2.0000                                                                                                           
                11 C1     2pz    ( 0.1048)  37 S2     3px    (-0.2755)  52 S2     3d0    ( 0.1001)  56 S2     3d2+   ( 0.1072)
                69 O3     2px    ( 0.3921)  72 O3     2py    ( 0.1810)  75 O3     2pz    ( 0.2295) 100 U4     6s     (-0.1705)
               149 U4     6d1+   ( 0.1070) 249 O6     2px    ( 0.2830) 255 O6     2pz    ( 0.2072) 279 O7     2px    ( 0.4056)
               285 O7     2pz    (-0.2903) 309 O8     2px    (-0.1240) 315 O8     2pz    ( 0.3276) 387 O12    2pz    (-0.1431)
      
         77   -0.3126    2.0000                                                                                                           
                41 S2     3py    (-0.1079)  48 S2     3d2-   (-0.1240)  66 O3     2s     (-0.1263)  69 O3     2px    ( 0.2322)
                72 O3     2py    ( 0.5319)  75 O3     2pz    ( 0.2191) 246 O6     2s     ( 0.1040) 249 O6     2px    (-0.4552)
               252 O6     2py    ( 0.4593) 255 O6     2pz    (-0.2809) 279 O7     2px    (-0.1279) 282 O7     2py    ( 0.1682)
               363 H11    1s     ( 0.1042)
         78   -0.2981    2.0000                                                                                                           
               116 U4     6py    ( 0.2560) 167 U4     5f1-   (-0.2546) 282 O7     2py    (-0.6047) 309 O8     2px    (-0.1010)
               312 O8     2py    (-0.6125)
         79   -0.2869    2.0000                                                                                                           
               108 U4     6px    ( 0.3838) 175 U4     5f1+   (-0.2023) 249 O6     2px    ( 0.1687) 279 O7     2px    (-0.5443)
               282 O7     2py    ( 0.1084) 309 O8     2px    (-0.5989) 312 O8     2py    ( 0.1066) 381 O12    2px    ( 0.2901)
      
         80   -0.2413    2.0000                                                                                                           
                11 C1     2pz    ( 0.1021)  33 S2     3s     (-0.1218)  37 S2     3px    ( 0.1778)  45 S2     3pz    (-0.1966)
                69 O3     2px    (-0.1136)  75 O3     2pz    ( 0.1174) 124 U4     6pz    ( 0.4788) 171 U4     5f0    (-0.5321)
               249 O6     2px    (-0.1184) 255 O6     2pz    ( 0.1309) 285 O7     2pz    ( 0.5009) 315 O8     2pz    ( 0.4463)
               387 O12    2pz    (-0.2467)
         81   -0.2167    2.0000                                                                                                           
                11 C1     2pz    ( 0.2791)  33 S2     3s     (-0.2796)  37 S2     3px    ( 0.3793)  45 S2     3pz    (-0.4676)
                54 S2     3d1+   ( 0.1117)  69 O3     2px    (-0.2194)  75 O3     2pz    ( 0.4369) 124 U4     6pz    (-0.2317)
               171 U4     5f0    ( 0.2266) 249 O6     2px    (-0.2260) 255 O6     2pz    ( 0.4349) 279 O7     2px    ( 0.1119)
               285 O7     2pz    (-0.1605) 309 O8     2px    (-0.1200) 315 O8     2pz    (-0.2288) 349 H10    1s     (-0.1039)
      
         82    0.0000    1.4999                                                                                                           
               108 U4     6px    (-0.1324) 116 U4     6py    (-0.1576) 131 U4     6d2-   ( 0.1204) 219 O5     2px    (-0.9367)
               222 O5     2py    (-0.1792) 381 O12    2px    ( 0.3347)
         83    0.0000    1.4999                                                                                                           
               225 O5     2pz    (-0.9757) 387 O12    2pz    ( 0.4396)
         84    0.0000    0.2500                                                                                                           
               159 U4     5f3-   (-0.9545) 167 U4     5f1-   (-0.1416) 183 U4     5f3+   ( 0.1957) 219 O5     2px    (-0.1258)
               381 O12    2px    ( 0.1120)
         85    0.0000    0.2500                                                                                                           
               163 U4     5f2-   (-0.1437) 175 U4     5f1+   (-0.1014) 179 U4     5f2+   ( 0.9762)
         86    0.0000    0.2501                                                                                                           
               163 U4     5f2-   ( 0.9780) 167 U4     5f1-   (-0.1020) 179 U4     5f2+   ( 0.1437)
         87    0.0000    0.2500                                                                                                           
               159 U4     5f3-   ( 0.2085) 183 U4     5f3+   ( 0.9710)
         88    0.1477    0.0000                                                                                                           
                 1 C1     1s     ( 0.4943)   2 C1     2s     ( 2.9239)   3 C1     3s     ( 1.5194)   4 C1     4s     ( 0.2036)
                 5 C1     2px    (-0.7263)   6 C1     3px    (-0.4341)  11 C1     2pz    (-0.2759)  12 C1     3pz    (-0.1574)
                18 C1     3d0    (-0.1223)  37 S2     3px    (-0.3021)  38 S2     4px    (-0.3090)  70 O3     3px    (-0.1196)
               100 U4     6s     ( 0.1862) 101 U4     7s     ( 0.4556) 108 U4     6px    (-0.1779) 109 U4     7px    (-0.4571)
               110 U4     8px    (-0.1274) 125 U4     7pz    ( 0.1192) 143 U4     6d0    (-0.1609) 144 U4     7d0    (-0.1022)
               155 U4     6d2+   ( 0.1417) 156 U4     7d2+   ( 0.1060) 250 O6     3px    (-0.1262) 335 H9     1s     (-1.9614)
               336 H9     2s     (-1.6383) 337 H9     3s     (-0.1123) 338 H9     2px    (-0.3227) 339 H9     3px    (-0.2073)
               340 H9     2py    ( 0.3607) 341 H9     3py    ( 0.2233) 342 H9     2pz    (-0.1024) 349 H10    1s     ( 0.4726)
               350 H10    2s     ( 0.7258) 351 H10    3s     ( 0.2046) 363 H11    1s     (-1.9016) 364 H11    2s     (-1.5827)
               365 H11    3s     (-0.1057) 366 H11    2px    (-0.2195) 367 H11    3px    (-0.1433) 368 H11    2py    (-0.4164)
               369 H11    3py    (-0.2596)
--
 
      Von Neumann Entropy (Root  1) =  1.00598
 

      Mulliken population analysis for root number:  1
      -----------------------------------------------
 
 
++    Molecular charges:
      ------------------
 
      Mulliken charges per centre and basis function type
      ---------------------------------------------------
 
                C1      S2      O3      U4      O5      O6      O7      O8      H9      H10     H11     O12   
      1s       2.0019  2.0000  1.9990  2.0000  1.9992  1.9990  1.9996  1.9996  0.8709  0.7933  0.8708  1.9989
      2s       1.3355  1.9988  1.8682  2.0000  1.9248  1.8678  1.8830  1.8865 -0.0140 -0.0093 -0.0141  1.9334
      2px      1.0097  2.0004  1.4999  2.0000  1.8602  1.6341  1.6891  1.6949  0.0082 -0.0006  0.0104  1.8404
      2pz      0.9032  2.0005  1.8398  2.0000  1.1211  1.8395  1.4711  1.4905  0.0160  0.0116  0.0160  1.8378
      2py      0.9936  2.0014  1.5001  2.0000  1.2317  1.3685  1.6490  1.6595  0.0053  0.0088  0.0032  0.8293
      3s       0.0320  1.5772  0.0021  2.0000 -0.0115  0.0019  0.0083  0.0078 -0.0048 -0.0062 -0.0048 -0.0121
      3px     -0.0123  1.1174 -0.0111  2.0000 -0.0148 -0.0115  0.0044  0.0000 -0.0022 -0.0163 -0.0009 -0.0206
      3pz     -0.0063  1.1515 -0.0166  2.0000 -0.0193 -0.0165 -0.0169 -0.0179  0.0007  0.0001  0.0007 -0.0151
      3py     -0.0104  0.6648 -0.0004  2.0000 -0.0205 -0.0003  0.0064  0.0071 -0.0062 -0.0025 -0.0074 -0.0153
      4s       0.0064  0.0156  0.0058  2.0000  0.0020  0.0057  0.0045  0.0043  0.0000  0.0000  0.0000  0.0032
      3d2+     0.0102  0.1848  0.0081  2.0000  0.0161  0.0094  0.0005  0.0007  0.0023  0.0003  0.0014  0.0181
      3d1+     0.0167  0.1245  0.0035  2.0000  0.0028  0.0019  0.0093  0.0088  0.0011  0.0005  0.0006  0.0028
      3d0      0.0233  0.1391  0.0032  2.0000  0.0045  0.0032  0.0091  0.0090  0.0003  0.0015  0.0003  0.0055
      3d1-     0.0049  0.1222  0.0053  2.0000  0.0117  0.0068  0.0095  0.0090  0.0011  0.0004  0.0016  0.0053
      3d2-     0.0200  0.1704  0.0101  2.0000  0.0099  0.0087  0.0003  0.0004  0.0003  0.0020  0.0012  0.0085
      4px     -0.0013 -0.0087  0.0001  2.0000  0.0017 -0.0001  0.0006 -0.0007  0.0000  0.0000  0.0000  0.0011
      4pz     -0.0007 -0.0086 -0.0005  2.0000  0.0000 -0.0005  0.0007  0.0015  0.0000  0.0000  0.0000 -0.0003
      4py     -0.0009  0.0281  0.0015  2.0000  0.0064  0.0016  0.0007  0.0005  0.0000  0.0000  0.0000  0.0062
      5s       0.0000  0.0063  0.0000  2.0009  0.0000  0.0000  0.0000  0.0000  0.0000  0.0000  0.0000  0.0000
      4d2+    -0.0000  0.0007  0.0018  2.0000  0.0014  0.0022  0.0000  0.0001  0.0000  0.0000  0.0000  0.0015
      4d1+     0.0019  0.0019  0.0005  2.0000  0.0009  0.0003  0.0015  0.0012  0.0000  0.0000  0.0000  0.0006
      4d0      0.0002  0.0019  0.0001  2.0000 -0.0000  0.0001 -0.0017 -0.0014  0.0000  0.0000  0.0000 -0.0001
      4d1-     0.0009 -0.0002  0.0010  2.0000  0.0031  0.0012  0.0015  0.0014  0.0000  0.0000  0.0000  0.0007
      4d2-    -0.0007  0.0016  0.0010  2.0000  0.0018  0.0007  0.0000  0.0000  0.0000  0.0000  0.0000  0.0004
      5px      0.0000 -0.0017  0.0000  2.0001  0.0000  0.0000  0.0000  0.0000  0.0000  0.0000  0.0000  0.0000
      5pz      0.0000 -0.0006  0.0000  1.9988  0.0000  0.0000  0.0000  0.0000  0.0000  0.0000  0.0000  0.0000
      5py      0.0000 -0.0023  0.0000  1.9999  0.0000  0.0000  0.0000  0.0000  0.0000  0.0000  0.0000  0.0000
      6s       0.0000  0.0000  0.0000  1.9841  0.0000  0.0000  0.0000  0.0000  0.0000  0.0000  0.0000  0.0000
      4f3+     0.0023  0.0221  0.0008  2.0000  0.0020  0.0006 -0.0000  0.0000  0.0000  0.0000  0.0000  0.0021
      4f2+     0.0006  0.0034  0.0000  2.0000  0.0015  0.0002  0.0001  0.0002  0.0000  0.0000  0.0000  0.0009
      4f1+     0.0020  0.0074  0.0003  2.0000  0.0003  0.0003  0.0011  0.0010  0.0000  0.0000  0.0000  0.0003
      4f0      0.0018  0.0259  0.0006  2.0000  0.0011  0.0006  0.0012  0.0011  0.0000  0.0000  0.0000  0.0008
      4f1-     0.0010  0.0093  0.0003  2.0000  0.0009  0.0004  0.0010  0.0010  0.0000  0.0000  0.0000  0.0013
      4f2-     0.0003  0.0219  0.0007  2.0000  0.0003  0.0005  0.0001  0.0001  0.0000  0.0000  0.0000  0.0002
      4f3-     0.0004  0.0345  0.0008  2.0000  0.0017  0.0011 -0.0000 -0.0000  0.0000  0.0000  0.0000  0.0016
      5d2+     0.0000  0.0000  0.0000  1.9999  0.0000  0.0000  0.0000  0.0000  0.0000  0.0000  0.0000  0.0000
      5d1+     0.0000  0.0000  0.0000  1.9993  0.0000  0.0000  0.0000  0.0000  0.0000  0.0000  0.0000  0.0000
      5d0      0.0000  0.0000  0.0000  1.9979  0.0000  0.0000  0.0000  0.0000  0.0000  0.0000  0.0000  0.0000
      5d1-     0.0000  0.0000  0.0000  1.9994  0.0000  0.0000  0.0000  0.0000  0.0000  0.0000  0.0000  0.0000
      5d2-     0.0000  0.0000  0.0000  1.9998  0.0000  0.0000  0.0000  0.0000  0.0000  0.0000  0.0000  0.0000
      6px      0.0000  0.0000  0.0000  1.9571  0.0000  0.0000  0.0000  0.0000  0.0000  0.0000  0.0000  0.0000
      6pz      0.0000  0.0000  0.0000  1.8150  0.0000  0.0000  0.0000  0.0000  0.0000  0.0000  0.0000  0.0000
      6py      0.0000  0.0000  0.0000  1.9746  0.0000  0.0000  0.0000  0.0000  0.0000  0.0000  0.0000  0.0000
      7s       0.0000  0.0000  0.0000  0.0870  0.0000  0.0000  0.0000  0.0000  0.0000  0.0000  0.0000  0.0000
      5f3+     0.0000  0.0000  0.0000  0.0302  0.0000  0.0000  0.0000  0.0000  0.0000  0.0000  0.0000  0.0000
      5f2+     0.0000  0.0000  0.0000  0.7658  0.0000  0.0000  0.0000  0.0000  0.0000  0.0000  0.0000  0.0000
      5f1+     0.0000  0.0000  0.0000  0.2578  0.0000  0.0000  0.0000  0.0000  0.0000  0.0000  0.0000  0.0000
      5f0      0.0000  0.0000  0.0000  0.8897  0.0000  0.0000  0.0000  0.0000  0.0000  0.0000  0.0000  0.0000
      5f1-     0.0000  0.0000  0.0000  0.2297  0.0000  0.0000  0.0000  0.0000  0.0000  0.0000  0.0000  0.0000
      5f2-     0.0000  0.0000  0.0000  0.2312  0.0000  0.0000  0.0000  0.0000  0.0000  0.0000  0.0000  0.0000
      5f3-     0.0000  0.0000  0.0000  0.0641  0.0000  0.0000  0.0000  0.0000  0.0000  0.0000  0.0000  0.0000
      6d2+     0.0000  0.0000  0.0000  0.0897  0.0000  0.0000  0.0000  0.0000  0.0000  0.0000  0.0000  0.0000
      6d1+     0.0000  0.0000  0.0000  0.3280  0.0000  0.0000  0.0000  0.0000  0.0000  0.0000  0.0000  0.0000
      6d0      0.0000  0.0000  0.0000  0.3855  0.0000  0.0000  0.0000  0.0000  0.0000  0.0000  0.0000  0.0000
      6d1-     0.0000  0.0000  0.0000  0.3580  0.0000  0.0000  0.0000  0.0000  0.0000  0.0000  0.0000  0.0000
      6d2-     0.0000  0.0000  0.0000  0.1492  0.0000  0.0000  0.0000  0.0000  0.0000  0.0000  0.0000  0.0000
      7px      0.0000  0.0000  0.0000  0.0343  0.0000  0.0000  0.0000  0.0000  0.0000  0.0000  0.0000  0.0000
      7pz      0.0000  0.0000  0.0000  0.0275  0.0000  0.0000  0.0000  0.0000  0.0000  0.0000  0.0000  0.0000
      7py      0.0000  0.0000  0.0000  0.0099  0.0000  0.0000  0.0000  0.0000  0.0000  0.0000  0.0000  0.0000
      5g4+     0.0000  0.0000  0.0000  0.0039  0.0000  0.0000  0.0000  0.0000  0.0000  0.0000  0.0000  0.0000
      5g3+     0.0000  0.0000  0.0000  0.0009  0.0000  0.0000  0.0000  0.0000  0.0000  0.0000  0.0000  0.0000
      5g2+     0.0000  0.0000  0.0000  0.0022  0.0000  0.0000  0.0000  0.0000  0.0000  0.0000  0.0000  0.0000
      5g1+     0.0000  0.0000  0.0000  0.0203  0.0000  0.0000  0.0000  0.0000  0.0000  0.0000  0.0000  0.0000
      5g0      0.0000  0.0000  0.0000  0.0175  0.0000  0.0000  0.0000  0.0000  0.0000  0.0000  0.0000  0.0000
      5g1-     0.0000  0.0000  0.0000  0.0160  0.0000  0.0000  0.0000  0.0000  0.0000  0.0000  0.0000  0.0000
      5g2-     0.0000  0.0000  0.0000  0.0026  0.0000  0.0000  0.0000  0.0000  0.0000  0.0000  0.0000  0.0000
      5g3-     0.0000  0.0000  0.0000  0.0016  0.0000  0.0000  0.0000  0.0000  0.0000  0.0000  0.0000  0.0000
      5g4-     0.0000  0.0000  0.0000  0.0053  0.0000  0.0000  0.0000  0.0000  0.0000  0.0000  0.0000  0.0000
      6f3+     0.0000  0.0000  0.0000  0.0145  0.0000  0.0000  0.0000  0.0000  0.0000  0.0000  0.0000  0.0000
      6f2+     0.0000  0.0000  0.0000  0.0117  0.0000  0.0000  0.0000  0.0000  0.0000  0.0000  0.0000  0.0000
      6f1+     0.0000  0.0000  0.0000  0.0759  0.0000  0.0000  0.0000  0.0000  0.0000  0.0000  0.0000  0.0000
      6f0      0.0000  0.0000  0.0000  0.0375  0.0000  0.0000  0.0000  0.0000  0.0000  0.0000  0.0000  0.0000
      6f1-     0.0000  0.0000  0.0000  0.0703  0.0000  0.0000  0.0000  0.0000  0.0000  0.0000  0.0000  0.0000
      6f2-     0.0000  0.0000  0.0000  0.0096  0.0000  0.0000  0.0000  0.0000  0.0000  0.0000  0.0000  0.0000
      6f3-     0.0000  0.0000  0.0000  0.0275  0.0000  0.0000  0.0000  0.0000  0.0000  0.0000  0.0000  0.0000
      6g4+     0.0000  0.0000  0.0000  0.0045  0.0000  0.0000  0.0000  0.0000  0.0000  0.0000  0.0000  0.0000
      6g3+     0.0000  0.0000  0.0000  0.0010  0.0000  0.0000  0.0000  0.0000  0.0000  0.0000  0.0000  0.0000
      6g2+     0.0000  0.0000  0.0000  0.0017  0.0000  0.0000  0.0000  0.0000  0.0000  0.0000  0.0000  0.0000
      6g1+     0.0000  0.0000  0.0000  0.0154  0.0000  0.0000  0.0000  0.0000  0.0000  0.0000  0.0000  0.0000
      6g0      0.0000  0.0000  0.0000  0.0033  0.0000  0.0000  0.0000  0.0000  0.0000  0.0000  0.0000  0.0000
      6g1-     0.0000  0.0000  0.0000  0.0114  0.0000  0.0000  0.0000  0.0000  0.0000  0.0000  0.0000  0.0000
      6g2-     0.0000  0.0000  0.0000  0.0025  0.0000  0.0000  0.0000  0.0000  0.0000  0.0000  0.0000  0.0000
      6g3-     0.0000  0.0000  0.0000  0.0023  0.0000  0.0000  0.0000  0.0000  0.0000  0.0000  0.0000  0.0000
      6g4-     0.0000  0.0000  0.0000  0.0049  0.0000  0.0000  0.0000  0.0000  0.0000  0.0000  0.0000  0.0000
      6h5+     0.0000  0.0000  0.0000  0.0006  0.0000  0.0000  0.0000  0.0000  0.0000  0.0000  0.0000  0.0000
      6h4+     0.0000  0.0000  0.0000  0.0001  0.0000  0.0000  0.0000  0.0000  0.0000  0.0000  0.0000  0.0000
      6h3+     0.0000  0.0000  0.0000  0.0002  0.0000  0.0000  0.0000  0.0000  0.0000  0.0000  0.0000  0.0000
      6h2+     0.0000  0.0000  0.0000  0.0004  0.0000  0.0000  0.0000  0.0000  0.0000  0.0000  0.0000  0.0000
      6h1+     0.0000  0.0000  0.0000  0.0032  0.0000  0.0000  0.0000  0.0000  0.0000  0.0000  0.0000  0.0000
      6h0      0.0000  0.0000  0.0000  0.0028  0.0000  0.0000  0.0000  0.0000  0.0000  0.0000  0.0000  0.0000
      6h1-     0.0000  0.0000  0.0000  0.0030  0.0000  0.0000  0.0000  0.0000  0.0000  0.0000  0.0000  0.0000
      6h2-     0.0000  0.0000  0.0000  0.0003  0.0000  0.0000  0.0000  0.0000  0.0000  0.0000  0.0000  0.0000
      6h3-     0.0000  0.0000  0.0000  0.0004  0.0000  0.0000  0.0000  0.0000  0.0000  0.0000  0.0000  0.0000
      6h4-     0.0000  0.0000  0.0000  0.0002  0.0000  0.0000  0.0000  0.0000  0.0000  0.0000  0.0000  0.0000
      6h5-     0.0000  0.0000  0.0000  0.0007  0.0000  0.0000  0.0000  0.0000  0.0000  0.0000  0.0000  0.0000
      7d2+     0.0000  0.0000  0.0000  0.0044  0.0000  0.0000  0.0000  0.0000  0.0000  0.0000  0.0000  0.0000
      7d1+     0.0000  0.0000  0.0000 -0.0182  0.0000  0.0000  0.0000  0.0000  0.0000  0.0000  0.0000  0.0000
      7d0      0.0000  0.0000  0.0000  0.0850  0.0000  0.0000  0.0000  0.0000  0.0000  0.0000  0.0000  0.0000
      7d1-     0.0000  0.0000  0.0000 -0.0167  0.0000  0.0000  0.0000  0.0000  0.0000  0.0000  0.0000  0.0000
      7d2-     0.0000  0.0000  0.0000 -0.0039  0.0000  0.0000  0.0000  0.0000  0.0000  0.0000  0.0000  0.0000
      7f3+     0.0000  0.0000  0.0000  0.0009  0.0000  0.0000  0.0000  0.0000  0.0000  0.0000  0.0000  0.0000
      7f2+     0.0000  0.0000  0.0000  0.0005  0.0000  0.0000  0.0000  0.0000  0.0000  0.0000  0.0000  0.0000
      7f1+     0.0000  0.0000  0.0000  0.0022  0.0000  0.0000  0.0000  0.0000  0.0000  0.0000  0.0000  0.0000
      7f0      0.0000  0.0000  0.0000  0.0052  0.0000  0.0000  0.0000  0.0000  0.0000  0.0000  0.0000  0.0000
      7f1-     0.0000  0.0000  0.0000  0.0021  0.0000  0.0000  0.0000  0.0000  0.0000  0.0000  0.0000  0.0000
      7f2-     0.0000  0.0000  0.0000  0.0010  0.0000  0.0000  0.0000  0.0000  0.0000  0.0000  0.0000  0.0000
      7f3-     0.0000  0.0000  0.0000  0.0009  0.0000  0.0000  0.0000  0.0000  0.0000  0.0000  0.0000  0.0000
      8s       0.0000  0.0000  0.0000  0.0139  0.0000  0.0000  0.0000  0.0000  0.0000  0.0000  0.0000  0.0000
      8px      0.0000  0.0000  0.0000  0.0084  0.0000  0.0000  0.0000  0.0000  0.0000  0.0000  0.0000  0.0000
      8pz      0.0000  0.0000  0.0000  0.0020  0.0000  0.0000  0.0000  0.0000  0.0000  0.0000  0.0000  0.0000
      8py      0.0000  0.0000  0.0000  0.0023  0.0000  0.0000  0.0000  0.0000  0.0000  0.0000  0.0000  0.0000
      8d2+     0.0000  0.0000  0.0000  0.0061  0.0000  0.0000  0.0000  0.0000  0.0000  0.0000  0.0000  0.0000
      8d1+     0.0000  0.0000  0.0000  0.0043  0.0000  0.0000  0.0000  0.0000  0.0000  0.0000  0.0000  0.0000
      8d0      0.0000  0.0000  0.0000  0.0177  0.0000  0.0000  0.0000  0.0000  0.0000  0.0000  0.0000  0.0000
      8d1-     0.0000  0.0000  0.0000  0.0029  0.0000  0.0000  0.0000  0.0000  0.0000  0.0000  0.0000  0.0000
      8d2-     0.0000  0.0000  0.0000  0.0094  0.0000  0.0000  0.0000  0.0000  0.0000  0.0000  0.0000  0.0000
      9s       0.0000  0.0000  0.0000  0.0017  0.0000  0.0000  0.0000  0.0000  0.0000  0.0000  0.0000  0.0000
      9px      0.0000  0.0000  0.0000  0.0039  0.0000  0.0000  0.0000  0.0000  0.0000  0.0000  0.0000  0.0000
      9pz      0.0000  0.0000  0.0000  0.0025  0.0000  0.0000  0.0000  0.0000  0.0000  0.0000  0.0000  0.0000
      9py      0.0000  0.0000  0.0000  0.0006  0.0000  0.0000  0.0000  0.0000  0.0000  0.0000  0.0000  0.0000
      Total    6.3358 15.4115  8.7259 90.1796  8.1411  8.7272  8.7344  8.7661  0.8789  0.7834  0.8787  8.4372
 
      N-E     -0.3358  0.5885 -0.7259  1.8204 -0.1411 -0.7272 -0.7344 -0.7661  0.1211  0.2166  0.1213 -0.4372
 
      Total electronic charge=  166.000000
 
      Total            charge=   -1.000000
--
 
 

      Expectation values of various properties for root number:  1
      -----------------------------------------------------------
 
 
++    Molecular properties:
      ---------------------
 
      Charge (e):
                      =   -1.0000
      Dipole Moment (Debye):
      Origin of the operator (Ang)=    0.0000    0.0000    0.0000
                   X=  1.5963E+00               Y=  9.3298E-01               Z= -1.2886E+00           Total=  2.2537E+00
      Center of Charge (Ang)
                     X=   -0.33233222               Y=   -0.19424096               Z=    0.26828560
      Quadrupole Moment (Debye*Ang):
      Origin of the operator (Ang)=   -0.4300   -0.0533   -0.0710
                  XX= -1.0904E+02              XY=  6.3054E-01              XZ=  3.7372E+00              YY= -9.5323E+01
                  YZ=  3.8990E-01              ZZ= -1.1126E+02
      In traceless form (Debye*Ang)
                  XX= -5.7439E+00              XY=  9.4581E-01              XZ=  5.6058E+00              YY=  1.4827E+01
                  YZ=  5.8485E-01              ZZ= -9.0829E+00
--
 

      Mulliken spin population analysis for root number:  1
[...]
         3    8      --------------- below threshold  1.96291193E-04
         3    9      --------------- below threshold  1.57408049E-05
         3   10      --------------- below threshold  1.98953103E-05
         3   12      --------------- below threshold  4.41829321E-06
         3   13       9.74244378E+01  3.91356568E-05  1.51949960E-03
         3   14      --------------- below threshold  2.96268848E-06
         3   16      --------------- below threshold  2.51342274E-05
         3   17       2.83104530E+01  1.60713882E-05  1.25253928E-05
         3   18       1.88358229E+02  4.71874441E-05  1.63641746E-05
         3   28      --------------- below threshold  1.12178391E-05
         4    5      --------------- below threshold  8.66321082E-05
         4    8      --------------- below threshold  2.05362382E-05
         4    9      --------------- below threshold  9.26091329E-05
         4   11      --------------- below threshold  3.43970691E-05
         4   12       9.78500884E+01  1.05080823E-05  4.88768107E-04
         4   13      --------------- below threshold  2.48929975E-06
         4   14      --------------- below threshold  2.32867650E-07
         4   15       8.44043656E+01  2.42863135E-05  1.55725075E-04
         4   17      --------------- below threshold  3.16713674E-05
         4   21       6.25077046E+01  6.90427500E-05  1.84151835E-04
         4   26      --------------- below threshold  1.09404869E-04
         5    6      --------------- below threshold  7.58764670E-03
         5    7      --------------- below threshold  1.19050858E-05
         5    8      --------------- below threshold  9.64326266E-04
         5    9      --------------- below threshold  2.64469771E-04
         5   10      --------------- below threshold  3.71936664E-04
         5   11      --------------- below threshold  7.95330031E-04
         5   14      --------------- below threshold  5.94034034E-05
         5   16       8.90338745E+01  1.96597464E-05  1.79277051E-04
         5   18      --------------- below threshold  1.39098754E-05
         5   21      --------------- below threshold  3.22880416E-05
         5   22       4.52595978E+02  5.88183292E-05  1.06440024E-05
         6    7      --------------- below threshold  7.21380646E-03
         6    8      --------------- below threshold  1.79632663E-03
         6    9      --------------- below threshold  8.54204298E-03
         6   10      --------------- below threshold  1.41845488E-03
         6   11       9.49207549E+01  1.01392872E-05  1.99621931E-04
         6   12      --------------- below threshold  6.53675686E-05
         6   13      --------------- below threshold  1.35767752E-05
         6   15       9.02296841E+01  1.01023536E-05  1.03398433E-04
         6   17       9.08919250E+01  3.14205241E-05  3.44974366E-04
         6   18      --------------- below threshold  2.08309877E-05
         6   19      --------------- below threshold  1.59905241E-05
         6   21       5.43079240E+01  1.41820503E-04  9.19074658E-05
         6   23      --------------- below threshold  7.98407351E-06
         6   25      --------------- below threshold  1.13833605E-05
         6   26       3.23917101E+01  5.01173449E-05  7.41289936E-05
         7    8      --------------- below threshold  2.39886362E-02
         7    9      --------------- below threshold  3.66271269E-03
         7   10      --------------- below threshold  2.68145661E-05
         7   11      --------------- below threshold  6.70411584E-05
         7   13      --------------- below threshold  3.13881056E-05
         7   14      --------------- below threshold  3.56782582E-05
         7   16      --------------- below threshold  7.09909332E-05
         7   24       2.99930371E+02  6.58547537E-05  1.64665548E-05
         8    9      --------------- below threshold  5.99775988E-04
         8   10       9.91753663E+01  3.55475307E-05  4.31070565E-03
         8   11      --------------- below threshold  5.37129838E-04
         8   15      --------------- below threshold  3.85291594E-05
         8   16       8.63878612E+01  4.25748118E-05  3.12770921E-04
         8   17       8.62855681E+01  2.38935043E-04  1.74221612E-03
         8   18       9.31362010E+01  2.28280268E-04  3.32585889E-03
         8   19       9.77720918E+01  1.04485194E-05  4.68983391E-04
         8   20       9.74902047E+01  1.85213722E-05  7.37963448E-04
         8   21       4.38152072E+01  4.76623423E-03  8.48313929E-03
         8   22      --------------- below threshold  2.68462458E-05
         8   23      --------------- below threshold  2.41945499E-05
         8   24       8.01560233E+01  1.38958235E-05  7.00253970E-05
         8   25       1.76042301E+01  2.90953358E-04  3.53116863E-04
         8   26       5.69326130E+01  2.08340021E-03  4.83753567E-03
         8   27      --------------- below threshold  1.23451885E-04
         8   28       9.30370027E+01  2.97445559E-05  4.27180343E-04
         8   29      --------------- below threshold  6.17924029E-05
         8   31       6.27272240E+01  4.11973423E-05  1.10529311E-04
         9   10       9.91815190E+01  2.25700144E-04  2.75754882E-02
         9   11       9.91767988E+01  2.64433349E-05  3.21225678E-03
         9   12      --------------- below threshold  2.58576680E-05
         9   13      --------------- below threshold  2.81825063E-05
         9   15      --------------- below threshold  2.42659895E-05
         9   16       8.62187280E+01  2.69381610E-04  1.95469337E-03
         9   17       8.64585199E+01  1.47948902E-03  1.09256079E-02
         9   18       9.31317312E+01  1.45989986E-03  2.12557181E-02
         9   19       9.77011195E+01  7.03525057E-05  3.06029416E-03
         9   20       9.73339741E+01  1.28458199E-04  4.81834029E-03
         9   21       4.38704540E+01  3.06393978E-02  5.45869333E-02
         9   22      --------------- below threshold  1.63940588E-04
         9   23       8.98585007E+01  1.40061559E-05  1.38107349E-04
         9   24       8.04036425E+01  8.91540574E-05  4.54952188E-04
         9   25       3.02319885E+01  1.51604980E-03  2.17298698E-03
         9   26       5.69933900E+01  1.33956246E-02  3.11478273E-02
         9   27       9.45377952E+01  4.35372378E-05  7.97063451E-04
         9   28       9.27036437E+01  1.93409558E-04  2.65076911E-03
         9   29       9.58286412E+01  2.03449336E-05  4.87729169E-04
         9   30      --------------- below threshold  1.52365766E-05
         9   31       6.28275819E+01  2.65579537E-04  7.14453218E-04
         9   33      --------------- below threshold  1.39390520E-05
        10   11      --------------- below threshold  2.14124139E-04
        10   13      --------------- below threshold  1.38674832E-05
        10   14      --------------- below threshold  7.39589756E-05
        10   15      --------------- below threshold  1.58141357E-04
        10   16      --------------- below threshold  3.84530277E-04
        10   17       9.68834289E+01  1.07784996E-05  3.45844818E-04
        10   18      --------------- below threshold  5.63423622E-04
        10   21       9.53755453E+01  1.80744912E-04  3.90845891E-03
        10   25      --------------- below threshold  1.36953576E-04
        10   26       7.75670212E+01  5.27198194E-05  2.35010339E-04
        10   27      --------------- below threshold  5.83413268E-06
        10   29      --------------- below threshold  1.71614908E-06
        11   12      --------------- below threshold  1.10785666E-03
        11   13      --------------- below threshold  6.59313808E-04
        11   14      --------------- below threshold  9.46502198E-05
        11   15      --------------- below threshold  4.68288519E-04
        11   16      --------------- below threshold  2.18088025E-04
        11   17      --------------- below threshold  4.24239319E-05
        11   18      --------------- below threshold  8.59372474E-04
        11   20      --------------- below threshold  1.36024751E-04
        11   21       9.85524885E+01  2.26260632E-05  1.56310073E-03
        11   22      --------------- below threshold  1.02354123E-05
        11   25      --------------- below threshold  5.34839132E-05
        11   26       8.50517072E+01  2.39225482E-05  1.60035320E-04
        11   27      --------------- below threshold  2.72986193E-06
        11   28      --------------- below threshold  3.56047182E-05
        11   29       2.47703902E+02  3.78792600E-05  1.08941141E-05
        12   13      --------------- below threshold  3.14730031E-03
        12   14      --------------- below threshold  5.38446745E-03
        12   16      --------------- below threshold  4.13553370E-04
        12   17      --------------- below threshold  2.16748976E-05
        12   18      --------------- below threshold  1.47092066E-04
        12   21      --------------- below threshold  1.89578870E-05
        12   28      --------------- below threshold  3.25025150E-06
        13   15      --------------- below threshold  3.18159811E-03
        13   16      --------------- below threshold  1.63196189E-05
        13   17      --------------- below threshold  1.56358635E-04
        13   18      --------------- below threshold  1.60156882E-04
        13   21      --------------- below threshold  6.12521985E-04
        13   25      --------------- below threshold  2.64932090E-05
        13   26       2.94213125E+01  5.66118930E-05  8.02110310E-05
        13   30      --------------- below threshold  4.27995961E-06
        14   15      --------------- below threshold  4.05260889E-03
        14   16      --------------- below threshold  2.00764882E-05
        14   17      --------------- below threshold  3.53579571E-04
        14   18      --------------- below threshold  5.85229997E-05
        14   21      --------------- below threshold  8.15968981E-05
        14   26      --------------- below threshold  1.63870528E-05
        14   30       3.70147693E+02  5.37103356E-05  1.14241411E-05
        15   16      --------------- below threshold  9.74389276E-04
        15   17      --------------- below threshold  3.56077298E-05
        15   21      --------------- below threshold  2.99184773E-05
        15   31      --------------- below threshold  2.91554606E-06
        16   17      --------------- below threshold  2.82376936E-01
        16   18      --------------- below threshold  2.35984181E-02
        16   19      --------------- below threshold  3.83032241E-04
        16   21       9.12140902E+01  4.58052556E-05  5.21349030E-04
        16   23      --------------- below threshold  2.69685173E-05
        16   26       3.07429343E+01  2.69044183E-05  3.88471819E-05
        16   30      --------------- below threshold  2.74861530E-05
        16   31      --------------- below threshold  2.54718612E-05
        16   32      --------------- below threshold  1.09160983E-06
        17   18      --------------- below threshold  9.35692009E-03
        17   19      --------------- below threshold  8.42059066E-05
        17   20      --------------- below threshold  5.14730306E-04
        17   21       9.28220893E+01  2.13384263E-04  2.97279072E-03
        17   22      --------------- below threshold  1.37881501E-05
        17   23      --------------- below threshold  1.11259676E-05
        17   25       4.93925718E+01  2.04603878E-05  4.04296138E-05
        17   26       6.56648284E+01  2.13201734E-04  6.20942676E-04
        17   27      --------------- below threshold  2.92571576E-05
        17   28      --------------- below threshold  1.94931435E-05
        17   29      --------------- below threshold  2.49504017E-05
        17   30      --------------- below threshold  6.81353903E-05
        17   31      --------------- below threshold  1.04744160E-05
        17   33      --------------- below threshold  1.86043006E-06
        18   19      --------------- below threshold  4.12605183E-05
        18   20      --------------- below threshold  9.16022273E-04
        18   21       9.73866202E+01  2.09650112E-04  8.02218308E-03
        18   22      --------------- below threshold  1.03055522E-05
        18   23      --------------- below threshold  4.88312212E-05
        18   25       8.82800147E+01  1.78299987E-05  1.52133286E-04
        18   26       6.84113647E+01  2.87062595E-04  9.08752760E-04
        18   27      --------------- below threshold  2.99098850E-05
        18   28       5.53442706E+01  1.28527026E-05  2.87817550E-05
        18   29      --------------- below threshold  3.92693677E-05
        18   30      --------------- below threshold  1.06891233E-04
        18   33      --------------- below threshold  1.40382228E-06
        19   20      --------------- below threshold  6.78063184E-05
        19   21      --------------- below threshold  4.75332113E-03
        19   22      --------------- below threshold  1.38495813E-03
        19   24      --------------- below threshold  1.08791823E-04
        19   25      --------------- below threshold  6.68041681E-05
        19   26       8.88606652E+01  1.17609890E-05  1.05580712E-04
        19   27      --------------- below threshold  1.02426862E-04
        19   28      --------------- below threshold  1.05649741E-05
        19   29      --------------- below threshold  1.40558283E-06
        19   31      --------------- below threshold  1.68107710E-05
        19   33      --------------- below threshold  3.67393099E-05
        20   21       9.98477668E+01  1.22389809E-05  8.03962466E-03
        20   22      --------------- below threshold  7.17359145E-05
        20   23      --------------- below threshold  1.79127933E-03
        20   25      --------------- below threshold  1.66896662E-05
        20   26       6.37160651E+01  5.83111301E-05  3.56172316E-05
        20   27      --------------- below threshold  1.15435825E-06
        20   28      --------------- below threshold  3.63840335E-05
        20   29      --------------- below threshold  3.84917819E-05
        20   31      --------------- below threshold  1.05478435E-05
        20   32      --------------- below threshold  7.44645516E-05
        21   23      --------------- below threshold  2.33427128E-04
        21   24      --------------- below threshold  7.42584678E-04
        21   25       9.56443460E+01  9.28100102E-05  4.74381254E-05
        21   26       8.50989786E+01  1.65230566E-03  1.10885396E-02
        21   27       8.94358994E+01  2.65043363E-05  2.50890609E-04
        21   28       9.05018206E+01  1.04424368E-04  1.09941457E-03
        21   29       9.50819834E+01  1.47675854E-05  3.00275226E-04
        21   31       9.01591500E+01  1.38321165E-04  1.40558147E-03
        21   33      --------------- below threshold  3.00318250E-05
        22   23      --------------- below threshold  4.67247603E-03
        22   25      --------------- below threshold  6.53607787E-04
        22   26      --------------- below threshold  1.42620595E-05
        22   27      --------------- below threshold  9.17294713E-06
        22   28      --------------- below threshold  8.73466479E-05
        22   29      --------------- below threshold  6.43938002E-04
        22   30      --------------- below threshold  5.10012994E-05
        22   32       9.25160497E+01  1.75154404E-05  2.34040041E-04
        23   24      --------------- below threshold  1.51286271E-03
        23   25      --------------- below threshold  5.82522465E-05
        23   26      --------------- below threshold  4.18540099E-05
        23   27      --------------- below threshold  7.58091273E-04
        23   28      --------------- below threshold  5.62064046E-05
        23   29      --------------- below threshold  8.68264423E-06
        23   31       8.79478374E+01  1.32622667E-05  1.10040556E-04
        23   33       9.52858918E+01  1.79902665E-05  3.81626084E-04
        24   25      --------------- below threshold  1.98329506E-02
        24   26      --------------- below threshold  3.83152123E-05
        24   29      --------------- below threshold  4.72548550E-05
        24   30      --------------- below threshold  1.93724380E-05
        24   32      --------------- below threshold  9.00296759E-05
        25   26       9.26997406E+01  4.39137209E-05  6.01536448E-04
        25   27      --------------- below threshold  1.45611720E-04
        25   28      --------------- below threshold  1.65299437E-04
        25   29      --------------- below threshold  3.37051057E-05
        25   31      --------------- below threshold  1.63247309E-04
        25   33       9.11974195E+01  1.22388613E-05  1.39037198E-04
        26   27      --------------- below threshold  2.05431757E-04
        26   28      --------------- below threshold  7.16284515E-04
        26   29      --------------- below threshold  1.11956906E-04
        26   30      --------------- below threshold  3.36882960E-05
        26   31      --------------- below threshold  2.45247200E-03
        26   32      --------------- below threshold  3.50892580E-05
        26   33      --------------- below threshold  1.01671950E-04
        27   28      --------------- below threshold  4.12570785E-04
        27   29      --------------- below threshold  1.06061667E-03
        27   30      --------------- below threshold  1.11657443E-04
        27   31      --------------- below threshold  1.76446086E-05
        27   32      --------------- below threshold  7.26026474E-04
        27   33      --------------- below threshold  2.69435153E-05
        28   29      --------------- below threshold  8.24580901E-03
        28   30      --------------- below threshold  4.27095443E-03
        28   31      --------------- below threshold  9.34345326E-05
        28   32      --------------- below threshold  5.33676243E-04
        28   33      --------------- below threshold  6.01133241E-05
        29   30      --------------- below threshold  4.61237169E-04
        29   31      --------------- below threshold  6.99806853E-04
        29   32      --------------- below threshold  1.00950770E-04
        29   33      --------------- below threshold  4.71076278E-04
        30   31      --------------- below threshold  9.09827042E-04
        30   32      --------------- below threshold  2.26764063E-05
        30   33      --------------- below threshold  8.82019422E-04
        31   32      --------------- below threshold  2.04286031E-03
        31   33      --------------- below threshold  5.21876863E-05
        32   33      --------------- below threshold  4.01885643E-01
      --------------------------------------------------------------
 
 Number of problematic transitions =                    321
 
 Electric-Dipole - Electric-Octupole not included
 Electric-Dipole - Magnetic-Quadrupole not included
 ###############################################################################
 ###############################################################################
 ###                                                                         ###
 ###                                                                         ###
 ###    RunFile label nBas                                                   ###
 ###    was used     5548 times                                              ###
 ###                                                                         ###
 ###                                                                         ###
 ###############################################################################
 ###############################################################################
--- Stop Module: rassi at Thu Dec  5 22:59:56 2019 /rc=_RC_ALL_IS_WELL_ ---
*** files: UO2_CH3SO2_O2-m1-triplet.rassi-SO-casscf-xmscaspt2.VTZP.rassi.h5 xmldump
    saved to directory /home/vallet/John-sulfinate/U-complexes/UO2_CH3SO2_O2-m1/singlet-geom/optg-freq-pbe0/SO-XMS
--- Module rassi spent 18 seconds ---

    Timing: Wall=50004.87 User=105695.58 System=39913.25
