   This run of MOLCAS is using the pymolcas driver

                             OPE
                             OPE          NMOL  CASOP  ENMOLC A   SO
                 OPE        NMOLC        AS  OP EN  MO LC     AS  OP
                OPENM       OL CA        SO  PE NM  OL CA     SOP EN
                OP EN      MO   LC       AS  OP ENMOL  CASO   PENMOL
                OP  EN     MO   LC       AS  OP EN     MO     LC ASO
               OP   E  NMOL  C  AS       OP  EN MO     LC     AS  OP
               OP  E   NMO   LC AS        OPEN  MO     LCASOP EN   M
               O  PEN   MO  LCA  SO
            OPE   NMO   L   CAS    OP
        OPENMOL  CASOP     ENMOL   CASOPE
     OPENMOLCA   SOPENMOLCASOPEN   MOLCASOPE
    OPENMOLCAS   OP           EN   MOL    CAS
    OPENMOLCAS       OP  ENM        O     LCA
    OPENMOLCAS    OPEN  MOLCASO     P  E  NMO
    OPENMOLCAS     OP               E  N  MOL
    OPENMOLCA   SO           PENM   O  L  CAS    OPEN    MO    LCAS
    OPENMOLCA   SOP           ENM   O  L  CAS   OP  EN  MOLC  AS   O
    OPENMOLCA   SOPE           NM      O  LCA   S      OP  EN MO
    OPENMOLC                AS         O  PEN   M      OL  CA  SOPE
    OPENMO        LCASOPE  NMOL        C  ASO   P      ENMOLC     AS
    OPE     NMO      LCA  SO     P     E   NM   OL  CA SO  PE N   MO
          OPENMOLCA            SOPE   NMO        LCAS  O    P  ENMO
     OPENMOLCASOPENMOLCASOPENMOLCASOPENMOLCA
        OPENMOLCASOPENMOLCASOPENMOLCASOPE
            OPENMOLCASOPENMOLCASOPENM
               OPENMOLCASOPENMOLCA        version: 18.09
                   OPENMOLCASO
                       OPE                tag: 259-g52797e1-dirty

 OpenMolcas is free software; you can redistribute it and/or modify it
 under the terms of the GNU Lesser General Public License version 2.1.
 OpenMolcas is distributed in the hope that it will be useful, but it
 is provided "as is" and without any express or implied warranties.
 For more details see the full text of the license in the file
 LICENSE or in <http://www.gnu.org/licenses/>.

                 Copyright (C) The OpenMolcas Authors
           For the author list and the recommended citation,
                   consult the file CONTRIBUTORS.md

           *************************************************
           * pymolcas version py2.05                       *
           *   build e639e37c9a57315123c35f99e509df06      *
           *   (after the EMIL interpreter by V. Veryazov) *
           *************************************************

configuration info
------------------
C Compiler ID: Intel
C flags: -I/share/apps/fftw/3.3.8/include -std=gnu99 -mcmodel=large -qopenmp
Fortran Compiler ID: Intel
Fortran flags: -fpp -mcmodel=large -i8 -r8 -heap-arrays -qopenmp
Definitions: _MOLCAS_;_I8_;_LINUX_;_MKL_;_FDE_
Parallel: OFF (GA=OFF)


   ---------------------------------------------------------------------------------------------------------------
  |
  |           Project: UO2_CH3SO2_O2-m1-triplet.casscf.MB
  |    Submitted from: /home/vallet/John-sulfinate/U-complexes/UO2_CH3SO2_O2-m1/singlet-geom/optg-freq-pbe0/SO-XMS
  |      Scratch area: /state/partition2/vallet/655446.phlam-s-sakura/UO2_CH3SO2_O2-m1-triplet.casscf.MB
  |   Save outputs to: /home/vallet/John-sulfinate/U-complexes/UO2_CH3SO2_O2-m1/singlet-geom/optg-freq-pbe0/SO-XMS
  |            Molcas: /home/pcmt/OpenMolcas/OpenMolcas-20190114
  |
  | Scratch area is empty
  |
  |    MOLCAS_DRIVER = /home/pcmt/OpenMolcas/OpenMolcas-20190114/sbin/pymolcas
  |   MOLCAS_LICENSE = /home/pcmt/molcas/license
  |    MOLCAS_MOLDEN = ON
  |    MOLCAS_NPROCS = 1
  |    MOLCAS_SOURCE = /home/pcmt/OpenMolcas/OpenMolcas-20190114
  | MOLCAS_STRUCTURE = 0
  |
   ---------------------------------------------------------------------------------------------------------------

++ ---------   Input file   ---------

&GATEWAY
   COORD=$HomeDir/UO2_CH3SO2_O2-m1.pbe0.optg-zaxis.xyz
   BASIS=ANO-RCC-MB
   Group=Nosym
   ANGM=0.0 0.0 0.0
   RICD

>>> COPY $Project.RunFile $HomeDir

&SEWARD

&RASSCF
   Spin=3
   Symmetry=1
   Nactel=4 0 0
   Inactive=81
   Ras2=6
   CIRoots=8 8 1
   Lumorb

&RASSCF
   Spin=3
   Symmetry=1
   Nactel=4 0 0
   Inactive=81
   Ras2=6
   CIRoots=8 8 1
   ALTER=2
 1 80 82
 1 81 83

   Lumorb

>>> COPY $Project.RasOrb $HomeDir/$Project.RasOrb_triplets

>>> COPY $Project.rasscf.molden $HomeDir/$Project.rasscf_triplets.molden

>>> COPY $Project.RasOrb INPORB

&RASSCF
   Spin=1
   Symmetry=1
   Nactel=4 0 0
   Inactive=81
   Ras2=6
   CIRoots=9 9 1
   Lumorb

>>> COPY $Project.RasOrb $HomeDir/$Project.RasOrb_singlets

>>> COPY $Project.rasscf.molden $HomeDir/$Project.rasscf_singlets.molden

-- ----------------------------------

--- Start Module: gateway at Wed Dec  4 10:49:42 2019 ---
 
()()()()()()()()()()()()()()()()()()()()()()()()()()()()()()()()()()()()()()()()()()()()()()()()()()

                                              &GATEWAY

                                   only a single process is used
                       available to each process: 16 GB of memory, 8 threads
()()()()()()()()()()()()()()()()()()()()()()()()()()()()()()()()()()()()()()()()()()()()()()()()()()
 
 
++    Symmetry information:
      ---------------------
 
                    Character Table for C1 
 
                             E  
                    a        1  x, y, xy, Rz, z, xz, Ry, yz, Rx, I
--
 
 
++    Basis set information:
      ----------------------
 
 
      Basis set label: C.ANO-RCC...2S1P.
 
      Electronic valence basis set:
      ------------------
      Associated Effective Charge   6.000000 au
      Associated Actual Charge      6.000000 au
      Nuclear Model: Point charge
 
      Shell  nPrim  nBasis  Cartesian Spherical Contaminant
         s      14       2        X                  
         p       9       1        X                  
 
 
      Basis set label: S.ANO-RCC...3S2P.
 
      Electronic valence basis set:
      ------------------
      Associated Effective Charge  16.000000 au
      Associated Actual Charge     16.000000 au
      Nuclear Model: Point charge
 
      Shell  nPrim  nBasis  Cartesian Spherical Contaminant
         s      17       3        X                  
         p      12       2        X                  
 
 
      Basis set label: O.ANO-RCC...2S1P.
 
      Electronic valence basis set:
      ------------------
      Associated Effective Charge   8.000000 au
      Associated Actual Charge      8.000000 au
      Nuclear Model: Point charge
 
      Shell  nPrim  nBasis  Cartesian Spherical Contaminant
         s      14       2        X                  
         p       9       1        X                  
 
 
      Basis set label: U.ANO-RCC...7S6P4D2F.
 
      Electronic valence basis set:
      ------------------
      Associated Effective Charge  92.000000 au
      Associated Actual Charge     92.000000 au
      Nuclear Model: Point charge
 
      Shell  nPrim  nBasis  Cartesian Spherical Contaminant
         s      26       7        X                  
         p      23       6        X                  
         d      17       4                 X         
         f      13       2                 X         
 
 
      Basis set label: O.ANO-RCC...2S1P.
 
      Electronic valence basis set:
      ------------------
      Associated Effective Charge   8.000000 au
      Associated Actual Charge      8.000000 au
      Nuclear Model: Point charge
 
      Shell  nPrim  nBasis  Cartesian Spherical Contaminant
         s      14       2        X                  
         p       9       1        X                  
 
 
      Basis set label: H.ANO-RCC...1S.
 
      Electronic valence basis set:
      ------------------
      Associated Effective Charge   1.000000 au
      Associated Actual Charge      1.000000 au
      Nuclear Model: Point charge
 
      Shell  nPrim  nBasis  Cartesian Spherical Contaminant
         s       8       1        X                  
 
 
      Basis set label: O.ANO-RCC...2S1P.
 
      Electronic valence basis set:
      ------------------
      Associated Effective Charge   8.000000 au
      Associated Actual Charge      8.000000 au
      Nuclear Model: Point charge
 
      Shell  nPrim  nBasis  Cartesian Spherical Contaminant
         s      14       2        X                  
         p       9       1        X                  
--
 
 
++    Molecular structure info:
      -------------------------
 
                    ************************************************ 
                    **** Cartesian Coordinates / Bohr, Angstrom **** 
                    ************************************************ 
 
     Center  Label                x              y              z                     x              y              z
        1      C1              -6.777125      -0.840512      -3.248987             -3.586300      -0.444780      -1.719290
        2      S2              -5.875177      -0.728659       0.055823             -3.109010      -0.385590       0.029540
        3      O3              -3.874978      -2.826501       0.181357             -2.050550      -1.495720       0.095970
        4      U4               0.000000       0.000000       0.000000              0.000000       0.000000       0.000000
        5      O5               3.610700       1.791309      -0.261595              1.910700       0.947920      -0.138430
        6      O6              -4.448056       1.794276       0.181357             -2.353810       0.949490       0.095970
        7      O7               0.000000       0.000000       3.359895              0.000000       0.000000       1.777980
        8      O8              -0.445824      -0.055293      -3.343341             -0.235920      -0.029260      -1.769220
        9      H9              -8.087952       0.708421      -3.610208             -4.279960       0.374880      -1.910440
       10      H10             -5.042413      -0.625367      -4.340399             -2.668330      -0.330930      -2.296840
       11      H11             -7.669850      -2.662756      -3.610208             -4.058710      -1.409070      -1.910440
       12      O12              3.938888      -0.854988      -0.261595              2.084370      -0.452440      -0.138430
 
                    *************************************** 
                    *    InterNuclear Distances / Bohr    * 
                    *************************************** 
 
               1 C1            2 S2            3 O3            4 U4            5 O5            6 O6    
    1 C1       0.000000
    2 S2       3.427505        0.000000
    3 O3       4.912624        2.901292        0.000000
    4 U4       7.562526        5.920454        4.799735        0.000000
    5 O5      11.124653        9.820023        8.806574        4.039105        0.000000
    6 O6       4.912630        2.901317        4.656179        4.799742        8.070921        0.000000
    7 O7       9.503326        6.779790        5.753926        3.359895        5.418591        5.753932
    8 O8       6.380505        6.440933        5.644660        3.373388        5.418716        5.644667
    9 H9       2.061054        4.516786        6.679880        8.885406       12.216559        5.366926
   10 H10      2.060750        4.475592        5.162768        6.682520        9.866779        5.162771
   11 H11      2.061071        4.516787        5.366921        8.885408       12.581841        6.679900
   12 O12     11.124642        9.820010        8.070909        4.039094        2.666570        8.806568
 
               7 O7            8 O8            9 H9           10 H10          11 H11          12 O12   
    7 O7       0.000000
    8 O8       6.718273        0.000000
    9 H9      10.700429        7.684829        0.000000
   10 H10      9.225591        4.737904        3.404038        0.000000
   11 H11     10.700431        7.684831        3.397005        3.404051        0.000000
   12 O12      5.418582        5.418706       12.581826        9.866769       12.216548        0.000000
 
                    ******************************************* 
                    *    InterNuclear Distances / Angstrom    * 
                    ******************************************* 
 
               1 C1            2 S2            3 O3            4 U4            5 O5            6 O6    
    1 C1       0.000000
    2 S2       1.813757        0.000000
    3 O3       2.599648        1.535298        0.000000
    4 U4       4.001916        3.132969        2.539910        0.000000
    5 O5       5.886913        5.196533        4.660238        2.137403        0.000000
    6 O6       2.599652        1.535311        2.463944        2.539914        4.270947        0.000000
    7 O7       5.028944        3.587710        3.044847        1.777980        2.867395        3.044850
    8 O8       3.376418        3.408395        2.987025        1.785120        2.867461        2.987029
    9 H9       1.090663        2.390180        3.534840        4.701954        6.464725        2.840055
   10 H10      1.090502        2.368381        2.732019        3.536237        5.221274        2.732021
   11 H11      1.090672        2.390181        2.840052        4.701956        6.658024        3.534851
   12 O12      5.886907        5.196526        4.270941        2.137396        1.411088        4.660235
 
               7 O7            8 O8            9 H9           10 H10          11 H11          12 O12   
    7 O7       0.000000
    8 O8       3.555157        0.000000
    9 H9       5.662423        4.066636        0.000000
   10 H10      4.881973        2.507191        1.801339        0.000000
   11 H11      5.662424        4.066638        1.797618        1.801346        0.000000
   12 O12      2.867390        2.867456        6.658016        5.221270        6.464719        0.000000
 
                    ************************************** 
                    *    Valence Bond Angles / Degree    * 
                    ************************************** 
                          Atom centers                 Phi
                      9 H9       1 C1      10 H10      111.35
                      9 H9       1 C1      11 H11      110.99
                     10 H10      1 C1      11 H11      111.35
                      3 O3       2 S2       6 O6       106.73
--
 
 
            Nuclear Potential Energy           1895.18099308 au
 
--- Stop Module: gateway at Wed Dec  4 10:50:43 2019 /rc=_RC_ALL_IS_WELL_ ---
*** files: UO2_CH3SO2_O2-m1-triplet.casscf.MB.RICDLib xmldump
    saved to directory /home/vallet/John-sulfinate/U-complexes/UO2_CH3SO2_O2-m1/singlet-geom/optg-freq-pbe0/SO-XMS
--- Module gateway spent 1 minute 0 seconds ---

>>> COPY UO2_CH3SO2_O2-m1-triplet.casscf.MB.RunFile /home/vallet/John-sulfinate/U-complexes/UO2_CH3SO2_O2-m1/singlet-geom/optg-freq-pbe0/SO-XMS

--- Start Module: seward at Wed Dec  4 10:50:43 2019 ---
 
()()()()()()()()()()()()()()()()()()()()()()()()()()()()()()()()()()()()()()()()()()()()()()()()()()

                                              &SEWARD

                                   only a single process is used
                       available to each process: 16 GB of memory, 8 threads
()()()()()()()()()()()()()()()()()()()()()()()()()()()()()()()()()()()()()()()()()()()()()()()()()()
 
               SEWARD will generate:
                  Multipole Moment integrals up to order  2
                  Kinetic Energy integrals
                  Nuclear Attraction integrals (point charge)
                  One-Electron Hamiltonian integrals
                  Velocity integrals
                  Relativistic Douglas-Kroll-Hess integrals:
                    - Parametrization         : EXP
                    - DKH order of Hamiltonian: 2
                    - DKH order of Properties : 0
                         - multipole moment operators
                         - electric potential operators
                         - contact operators
                  Orbital angular momentum around ( 0.0000  0.0000  0.0000 )
                  Atomic mean-field integrals
                  RI decomposed two-electron repulsion integrals stored Cholesky style
                   - acCD auxiliary basis
                   - CD Threshold:   0.10E-03
 
                   Integrals are discarded if absolute value <: 0.10E-13
                   Integral cutoff threshold is set to       <: 0.10E-15
 
            Nuclear Potential Energy           1895.18099308 au
 
 
      Basis set specifications :
      Symmetry species         a  
      Basis functions          106
 
 
  Input file to MOLDEN was generated!
 
--- Stop Module: seward at Wed Dec  4 10:51:00 2019 /rc=_RC_ALL_IS_WELL_ ---
*** files: UO2_CH3SO2_O2-m1-triplet.casscf.MB.GssOrb UO2_CH3SO2_O2-m1-triplet.casscf.MB.guessorb.h5 UO2_CH3SO2_O2-m1-triplet.casscf.MB.guessorb.molden xmldump
    saved to directory /home/vallet/John-sulfinate/U-complexes/UO2_CH3SO2_O2-m1/singlet-geom/optg-freq-pbe0/SO-XMS
--- Module seward spent 17 seconds ---

*** symbolic link created: INPORB -> UO2_CH3SO2_O2-m1-triplet.casscf.MB.GssOrb
--- Start Module: rasscf at Wed Dec  4 10:51:00 2019 ---
 
()()()()()()()()()()()()()()()()()()()()()()()()()()()()()()()()()()()()()()()()()()()()()()()()()()

                                              &RASSCF

                                   only a single process is used
                       available to each process: 16 GB of memory, 8 threads
()()()()()()()()()()()()()()()()()()()()()()()()()()()()()()()()()()()()()()()()()()()()()()()()()()
 
 
      Header of the ONEINT file:
      --------------------------
      
      Integrals generated by seward 4.2.0  , Wed Dec  4 10:50:43 2019
 
 
      OrdInt status: non-squared
 
 
      Cartesian coordinates in Angstrom:
      -----------------------------------------------------
      No.  Label        X            Y            Z        
      -----------------------------------------------------
       1   C1        -3.58630000  -0.44478000  -1.71929000
       2   S2        -3.10901000  -0.38559000   0.02954000
       3   O3        -2.05055000  -1.49572000   0.09597000
       4   U4         0.00000000   0.00000000   0.00000000
       5   O5         1.91070000   0.94792000  -0.13843000
       6   O6        -2.35381000   0.94949000   0.09597000
       7   O7         0.00000000   0.00000000   1.77798000
       8   O8        -0.23592000  -0.02926000  -1.76922000
       9   H9        -4.27996000   0.37488000  -1.91044000
      10   H10       -2.66833000  -0.33093000  -2.29684000
      11   H11       -4.05871000  -1.40907000  -1.91044000
      12   O12        2.08437000  -0.45244000  -0.13843000
      -----------------------------------------------------
      Nuclear repulsion energy = 1895.18099308
 
++    Wave function specifications:
      -----------------------------
 
      Number of closed shell electrons         162
      Number of electrons in active shells       4
      Max number of holes in RAS1 space          0
      Max nr of electrons in RAS3 space          0
      Number of inactive orbitals               81
      Number of active orbitals                  6
      Number of secondary orbitals              19
      Spin quantum number                      1.0
      State symmetry                             1
--
 
++    Orbital specifications:
      -----------------------
 
      Symmetry species                           1
                                                 a
      Frozen orbitals                            0
      Inactive orbitals                         81
      Active orbitals                            6
      RAS1 orbitals                              0
      RAS2 orbitals                              6
      RAS3 orbitals                              0
      Secondary orbitals                        19
      Deleted orbitals                           0
      Number of basis functions                106
--
 
++    CI expansion specifications:
      ----------------------------
 
      Number of CSFs                           105
      Number of determinants                   120
      Number of root(s) required                 8
      Root chosen for geometry opt.              8
      CI roots used                              1     2     3     4     5     6     7     8
      weights                                0.125 0.125 0.125 0.125 0.125 0.125 0.125 0.125
      highest root included in the CI            8
      max. size of the explicit Hamiltonian    105
--
 
++    Optimization specifications:
      ----------------------------
 
      RASSCF algorithm: LK RI/DF
      Maximum number of macro iterations       200
      Maximum number of SX iterations          100
      Threshold for RASSCF energy            0.100E-07
      Threshold for max MO rotation          0.100E+00
      Threshold for max BLB element          0.100E-03
      Level shift parameter                  0.500E+00
      Make Quasi-Newton update
--
 
      The MO-coefficients are taken from the file:
      INPORB                                                                                                                          
      Title:Guess orbitals                                                                 
 
      Total molecular charge   -1.00
 
      ************************************************************************************************************************
      *                                                                                                                      *
      *                                            Wave function control section                                             *
      *                                                                                                                      *
      ************************************************************************************************************************
 
 
                                         RASSCF iterations: Energy and convergence statistics
                                         ----------------------------------------------------
 
      Iter CI   SX   CI       RASSCF       Energy    max ROT     max BLB   max BLB  Level Ln srch  Step   QN   Walltime
          iter iter root      energy       change     param      element    value   shift minimum  type update hh:mm:ss
 Nr of preliminary CI iterations:   1
      Total energies have been shifted. Add               -28000.00 au
        1   1  100    0  -835.89661837    0.00E+00   0.16E+00*  72  93 1  0.27E+00*  0.64   0.00    SX    NO    0:00:03
        2   1   50    0  -836.58569313   -0.69E+00* -0.26E+00*  72  93 1  0.15E+00*  0.59   0.00    SX    NO    0:00:01
        3   1  100    0  -836.75813010   -0.17E+00* -0.19E+00*  79  97 1 -0.67E-01*  0.56   0.00    SX    NO    0:00:01
        4   1   14    0  -836.82029848   -0.62E-01*  0.18E+00*  56  93 1  0.45E-01*  0.56   0.00    SX    NO    0:00:01
        5   1   49    0  -836.84966409   -0.29E-01* -0.87E-01   79  97 1 -0.29E-01*  0.56   1.37    QN   YES    0:00:01
        6   1   10    0  -836.86409197   -0.14E-01*  0.36E-01   82  91 1 -0.14E-01*  0.56   1.21    QN   YES    0:00:01
        7   1    9    0  -836.86722808   -0.31E-02* -0.28E-01   82  91 1 -0.93E-02*  0.55   1.35    QN   YES    0:00:01
        8   1    9    0  -836.86882618   -0.16E-02* -0.30E-01   56  93 1 -0.69E-02*  0.55   2.18    LS   YES    0:00:01
        9   1    9    0  -836.86948111   -0.65E-03*  0.20E-01   71  90 1 -0.86E-02*  0.55   1.13    QN   YES    0:00:01
       10   1    9    0  -836.87036374   -0.88E-03*  0.27E-01   62  91 1  0.46E-02*  0.55   2.50    LS   YES    0:00:01
       11   1    9    0  -836.87092804   -0.56E-03*  0.29E-01   79  97 1  0.51E-02*  0.55   1.30    QN   YES    0:00:01
       12   1    9    0  -836.87166253   -0.73E-03*  0.90E-01   56  93 1  0.44E-02*  0.55   2.50    QN   YES    0:00:01
       13   1    9    0  -836.87327211   -0.16E-02*  0.93E-01   73  89 1 -0.51E-02*  0.54   2.50    LS   YES    0:00:01
       14   1    9    0  -836.87402583   -0.75E-03*  0.67E-01   75  93 1  0.81E-02*  0.54   1.35    QN   YES    0:00:01
       15   1    9    0  -836.87505949   -0.10E-02*  0.24E+00*  75  93 1  0.81E-02*  0.54   2.50    QN   YES    0:00:01
       16   1   10    0  -836.87823714   -0.32E-02* -0.78E-01   71  83 1 -0.12E-01*  0.55   1.08    QN   YES    0:00:01
       17   1   12    0  -836.88053260   -0.23E-02*  0.10E+00   76  93 1  0.11E-01*  0.56   1.70    QN   YES    0:00:01
       18   1   10    0  -836.88504173   -0.45E-02*  0.10E+00*  56  93 1 -0.15E-01*  0.57   1.37    QN   YES    0:00:01
       19   1   11    0  -836.88853765   -0.35E-02*  0.11E+00*  56  93 1 -0.16E-01*  0.58   1.53    QN   YES    0:00:01
       20   1   11    0  -836.89504259   -0.65E-02*  0.80E-01   75  93 1 -0.18E-01*  0.59   1.71    QN   YES    0:00:01
       21   1    8    0  -836.90256126   -0.75E-02* -0.87E-01   82  91 1 -0.22E-01*  0.60   1.75    QN   YES    0:00:01
       22   1    9    0  -836.91007589   -0.75E-02* -0.62E-01   82  91 1 -0.23E-01*  0.61   1.61    QN   YES    0:00:01
       23   1   13    0  -836.91534386   -0.53E-02* -0.86E-01   82  91 1 -0.17E-01*  0.62   1.60    QN   YES    0:00:01
       24   1    9    0  -836.91878707   -0.34E-02* -0.74E-01   56  93 1  0.11E-01*  0.63   1.22    QN   YES    0:00:01
       25   1    9    0  -836.92078063   -0.20E-02*  0.22E-01   56  93 1  0.82E-02*  0.63   1.02    QN   YES    0:00:01
       26   1    8    0  -836.92194415   -0.12E-02*  0.13E-01   62  91 1 -0.43E-02*  0.63   1.40    QN   YES    0:00:01
       27   1    8    0  -836.92225060   -0.31E-03*  0.95E-02   77  91 1  0.18E-02*  0.63   1.10    QN   YES    0:00:01
       28   1    8    0  -836.92231661   -0.66E-04*  0.76E-02   77  91 1  0.16E-02*  0.63   1.09    QN   YES    0:00:01
       29   1    8    0  -836.92235643   -0.40E-04*  0.77E-02   83  90 1 -0.11E-02*  0.63   2.03    LS   YES    0:00:01
       30   1    8    0  -836.92237020   -0.14E-04* -0.52E-02   83  90 1 -0.12E-02*  0.63   1.02    QN   YES    0:00:01
       31   1    8    0  -836.92238924   -0.19E-04* -0.76E-02   83  90 1 -0.84E-03*  0.63   2.50    LS   YES    0:00:01
       32   1    8    0  -836.92240434   -0.15E-04* -0.12E-01   56  93 1  0.76E-03*  0.63   1.46    QN   YES    0:00:01
       33   1    8    0  -836.92242221   -0.18E-04* -0.15E-01   73  89 1  0.54E-03*  0.63   2.33    LS   YES    0:00:01
       34   1    8    0  -836.92243068   -0.85E-05*  0.63E-02   77  91 1 -0.79E-03*  0.63   1.02    QN   YES    0:00:01
       35   1    7    0  -836.92244296   -0.12E-04*  0.92E-02   77  91 1 -0.81E-03*  0.63   2.50    LS   YES    0:00:01
       36   1    7    0  -836.92245195   -0.90E-05*  0.77E-02   77  91 1 -0.85E-03*  0.63   1.34    QN   YES    0:00:01
       37   1    7    0  -836.92245927   -0.73E-05*  0.11E-01   77  91 1 -0.64E-03*  0.63   2.05    QN   YES    0:00:01
       38   1    7    0  -836.92246574   -0.65E-05*  0.38E-02   78  91 1  0.40E-03*  0.63   1.38    QN   YES    0:00:01
       39   1    7    0  -836.92246774   -0.20E-05*  0.13E-02   78  91 1  0.25E-03*  0.63   1.51    QN   YES    0:00:01
       40   1    6    0  -836.92246865   -0.91E-06* -0.56E-03   79  88 1  0.13E-03*  0.63   1.35    QN   YES    0:00:01
       41   1    6    0  -836.92246892   -0.27E-06* -0.84E-03   79  88 1  0.73E-04   0.63   2.50    LS   YES    0:00:01
       42   1    6    0  -836.92246887    0.55E-07* -0.34E-03   74  87 1  0.11E-03*  0.63   0.42    LS   YES    0:00:01
       43   1    6    0  -836.92246896   -0.95E-07* -0.20E-03   81 101 1 -0.67E-04   0.63   2.20    QN   YES    0:00:01
       44   1    6    0  -836.92246909   -0.13E-06*  0.70E-03   74  87 1  0.40E-04   0.63   1.50    QN   YES    0:00:01
       45   1    6    0  -836.92246922   -0.13E-06* -0.75E-03   84  89 1 -0.29E-04   0.63   1.26    QN   YES    0:00:01
       46   1    6    0  -836.92246928   -0.59E-07* -0.14E-02   79  88 1 -0.30E-04   0.63   2.03    QN   YES    0:00:01
       47   1    6    0  -836.92246936   -0.76E-07*  0.10E-02   79  88 1 -0.40E-04   0.63   1.57    QN   YES    0:00:01
       48   1    6    0  -836.92246941   -0.47E-07*  0.14E-02   77  91 1  0.33E-04   0.63   2.39    LS   YES    0:00:01
       49   1    6    0  -836.92246941   -0.44E-08  -0.64E-03   77  91 1  0.38E-04   0.63   0.56    QN   YES    0:00:01
      Convergence after 49 iterations
       50   1    6    0  -836.92246944   -0.30E-07* -0.64E-03   77  91 1  0.24E-04   0.63   0.56    QN   YES    0:00:01
 
      ************************************************************************************************************************
                                                      Wave function printout:
                       occupation of active orbitals, and spin coupling of open shells (u,d: Spin up or down)
      ************************************************************************************************************************
 
      Note: transformation to natural orbitals
      has been made, which may change the order of the CSFs.
 
      printout of CI-coefficients larger than  0.05 for root  1
      energy=  -28836.948716
      conf/sym  111111     Coeff  Weight
             4  2u0u00  -0.09263 0.00858
             7  u20u00  -0.99438 0.98879
 
      printout of CI-coefficients larger than  0.05 for root  2
      energy=  -28836.940390
      conf/sym  111111     Coeff  Weight
             1  2uu000  -0.06403 0.00410
             2  u2u000  -0.10843 0.01176
             5  2u00u0  -0.09862 0.00972
             8  u200u0  -0.98708 0.97432
 
      printout of CI-coefficients larger than  0.05 for root  3
      energy=  -28836.929873
      conf/sym  111111     Coeff  Weight
             4  2u0u00   0.57553 0.33124
             9  u2000u  -0.81552 0.66507
 
      printout of CI-coefficients larger than  0.05 for root  4
      energy=  -28836.925687
      conf/sym  111111     Coeff  Weight
             4  2u0u00   0.81036 0.65669
             6  2u000u   0.10545 0.01112
             7  u20u00  -0.07800 0.00608
             9  u2000u   0.57099 0.32603
 
      printout of CI-coefficients larger than  0.05 for root  5
      energy=  -28836.919996
      conf/sym  111111     Coeff  Weight
             1  2uu000   0.07737 0.00599
             2  u2u000   0.29831 0.08899
             5  2u00u0   0.94204 0.88744
             8  u200u0  -0.13189 0.01740
 
      printout of CI-coefficients larger than  0.05 for root  6
      energy=  -28836.911643
      conf/sym  111111     Coeff  Weight
             1  2uu000  -0.07647 0.00585
             2  u2u000  -0.94258 0.88845
             5  2u00u0   0.31557 0.09958
             8  u200u0   0.07700 0.00593
 
      printout of CI-coefficients larger than  0.05 for root  7
      energy=  -28836.909209
      conf/sym  111111     Coeff  Weight
             4  2u0u00  -0.05839 0.00341
             6  2u000u   0.99230 0.98466
             7  u20u00   0.05556 0.00309
             9  u2000u  -0.09280 0.00861
 
      printout of CI-coefficients larger than  0.05 for root  8
      energy=  -28836.894241
      conf/sym  111111     Coeff  Weight
             1  2uu000   0.99181 0.98370
             2  u2u000  -0.10304 0.01062
             5  2u00u0  -0.05557 0.00309
 
      Natural orbitals and occupation numbers for root  1
      sym 1:   1.002495   1.997476   0.000024   0.997488   0.000006   0.002510
 
      Natural orbitals and occupation numbers for root  2
      sym 1:   1.002751   1.997174   0.002795   0.000053   0.997209   0.000018
 
      Natural orbitals and occupation numbers for root  3
      sym 1:   1.332666   1.667244   0.000028   0.332751   0.000055   0.667257
 
      Natural orbitals and occupation numbers for root  4
      sym 1:   1.667800   1.332110   0.000026   0.667884   0.000073   0.332108
 
      Natural orbitals and occupation numbers for root  5
      sym 1:   1.906205   1.093574   0.093646   0.000181   0.906370   0.000024
 
      Natural orbitals and occupation numbers for root  6
      sym 1:   1.093777   1.906108   0.906119   0.000067   0.093884   0.000044
 
      Natural orbitals and occupation numbers for root  7
      sym 1:   1.997261   1.002491   0.000053   0.002592   0.000130   0.997474
 
      Natural orbitals and occupation numbers for root  8
      sym 1:   1.996913   1.002807   0.997142   0.000129   0.002950   0.000060
 
      ************************************************************************************************************************
      *                                                                                                                      *
      *                                                    Final results                                                     *
      *                                                                                                                      *
      ************************************************************************************************************************
 
 
++    Wave function specifications:
      -----------------------------
 
      Number of closed shell electrons         162
      Number of electrons in active shells       4
      Max number of holes in RAS1 space          0
      Max nr of electrons in RAS3 space          0
      Number of inactive orbitals               81
      Number of active orbitals                  6
      Number of secondary orbitals              19
      Spin quantum number                      1.0
      State symmetry                             1
--
 
++    Orbital specifications:
      -----------------------
 
      Symmetry species                           1
                                                 a
      Frozen orbitals                            0
      Inactive orbitals                         81
      Active orbitals                            6
      RAS1 orbitals                              0
      RAS2 orbitals                              6
      RAS3 orbitals                              0
      Secondary orbitals                        19
      Deleted orbitals                           0
      Number of basis functions                106
--
 
++    CI expansion specifications:
      ----------------------------
 
      Number of CSFs                           105
      Number of determinants                   120
      Number of root(s) required                 8
      CI roots used                              1     2     3     4     5     6     7     8
      weights                                0.125 0.125 0.125 0.125 0.125 0.125 0.125 0.125
      highest root included in the CI            8
      Root passed to geometry opt.               8
--
 
++    Final optimization conditions:
      ------------------------------
 
      Average CI energy                          -28836.92246944
      RASSCF energy for state  8                 -28836.89424083
      Super-CI energy                                -0.00000001
      RASSCF energy change                           -0.00000003
      Max change in MO coefficients               0.589E-03
      Max non-diagonal density matrix element    -0.640E-03
      Maximum BLB matrix element                  0.239E-04
      (orbital pair  77,  91 in symmetry   1)
      Norm of electronic gradient            0.631E-01
--
 
 
      Final state energy(ies):
      ------------------------
 
::    RASSCF root number  1 Total energy: -28836.94871629
::    RASSCF root number  2 Total energy: -28836.94039040
::    RASSCF root number  3 Total energy: -28836.92987293
::    RASSCF root number  4 Total energy: -28836.92568737
::    RASSCF root number  5 Total energy: -28836.91999626
::    RASSCF root number  6 Total energy: -28836.91164267
::    RASSCF root number  7 Total energy: -28836.90920877
::    RASSCF root number  8 Total energy: -28836.89424083
 
++    Molecular orbitals:
      -------------------
 
      Pseudonatural active orbitals and approximate occupation numbers
 
 
 
 
      Molecular orbitals for symmetry species 1: a  
 
 
      Orbital                1         2         3         4         5         6         7         8         9        10
      Energy        -4260.3256 -804.2861 -674.9577 -674.9575 -674.9571 -206.3260 -169.7249 -169.7246 -169.7208 -135.1499
      Occ. No.          2.0000    2.0000    2.0000    2.0000    2.0000    2.0000    2.0000    2.0000    2.0000    2.0000
 
    1 C1     1s        -0.0000   -0.0000    0.0000    0.0000   -0.0000   -0.0000    0.0000    0.0000    0.0000   -0.0000
    2 C1     2s        -0.0000   -0.0000   -0.0000    0.0000   -0.0000   -0.0000   -0.0000   -0.0000   -0.0000   -0.0000
    3 C1     2px       -0.0000   -0.0000   -0.0000   -0.0000   -0.0000   -0.0000   -0.0000   -0.0000   -0.0000    0.0000
    4 C1     2py       -0.0000   -0.0000   -0.0000   -0.0000    0.0000   -0.0000   -0.0000    0.0000   -0.0000    0.0000
    5 C1     2pz       -0.0000   -0.0000   -0.0000   -0.0000   -0.0000   -0.0000   -0.0000   -0.0000   -0.0000    0.0000
    6 S2     1s        -0.0000   -0.0000   -0.0000   -0.0000   -0.0000   -0.0000   -0.0000   -0.0000   -0.0000    0.0000
    7 S2     2s        -0.0000   -0.0000   -0.0000   -0.0000   -0.0000   -0.0000   -0.0000   -0.0000   -0.0000    0.0000
    8 S2     3s        -0.0000   -0.0000   -0.0000   -0.0000   -0.0000   -0.0000   -0.0000   -0.0000   -0.0000    0.0000
    9 S2     2px        0.0000    0.0000   -0.0000   -0.0000   -0.0000    0.0000   -0.0000   -0.0000   -0.0000    0.0000
   10 S2     3px        0.0000    0.0000   -0.0000   -0.0000    0.0000    0.0000   -0.0000    0.0000   -0.0000    0.0000
   11 S2     2py        0.0000    0.0000   -0.0000   -0.0000    0.0000    0.0000   -0.0000    0.0000   -0.0000    0.0000
   12 S2     3py        0.0000    0.0000   -0.0000   -0.0000   -0.0000    0.0000   -0.0000   -0.0000   -0.0000    0.0000
   13 S2     2pz       -0.0000   -0.0000   -0.0000    0.0000   -0.0000   -0.0000   -0.0000   -0.0000    0.0000    0.0000
   14 S2     3pz       -0.0000   -0.0000    0.0000    0.0000    0.0000   -0.0000    0.0000    0.0000    0.0000   -0.0000
   15 O3     1s         0.0000    0.0000   -0.0000   -0.0000   -0.0000    0.0000   -0.0000   -0.0000   -0.0000    0.0000
   16 O3     2s         0.0000    0.0000   -0.0000   -0.0000   -0.0000    0.0000   -0.0000   -0.0000   -0.0000    0.0000
   17 O3     2px        0.0000    0.0000    0.0000    0.0000    0.0000    0.0000    0.0000    0.0000   -0.0000   -0.0000
   18 O3     2py        0.0000    0.0000    0.0000    0.0000    0.0000    0.0000    0.0000    0.0000    0.0000   -0.0000
   19 O3     2pz       -0.0000   -0.0000   -0.0000   -0.0000    0.0000   -0.0000   -0.0000   -0.0000    0.0000    0.0000
   20 U4     1s         1.0000   -0.0000   -0.0000    0.0000    0.0000    0.0000    0.0000    0.0000   -0.0000   -0.0000
   21 U4     2s         0.0000    1.0000   -0.0000    0.0000    0.0000   -0.0000   -0.0000   -0.0000    0.0000   -0.0000
   22 U4     3s        -0.0000    0.0000    0.0000   -0.0000   -0.0000    1.0000   -0.0001   -0.0000    0.0002    0.0000
   23 U4     4s         0.0000   -0.0000   -0.0000    0.0000    0.0000   -0.0000    0.0000    0.0000   -0.0000    0.0000
   24 U4     5s        -0.0000    0.0000    0.0000   -0.0000   -0.0000    0.0000   -0.0000   -0.0000    0.0000   -0.0000
   25 U4     6s         0.0000   -0.0000    0.0000    0.0000    0.0000    0.0000    0.0000    0.0000   -0.0000    0.0000
   26 U4     7s        -0.0000   -0.0000    0.0000    0.0000    0.0000   -0.0000    0.0000    0.0000    0.0000   -0.0000
   27 U4     2px        0.0000    0.0000    0.9017    0.4144   -0.1231   -0.0000   -0.0000    0.0000   -0.0000   -0.0000
   28 U4     3px       -0.0000    0.0000    0.0000    0.0000   -0.0000    0.0001    0.9772   -0.1229    0.1730   -0.0001
   29 U4     4px        0.0000   -0.0000   -0.0000   -0.0000    0.0000    0.0000   -0.0000    0.0000   -0.0000    0.0000
   30 U4     5px       -0.0000    0.0000    0.0000    0.0000   -0.0000   -0.0000    0.0000   -0.0000    0.0000   -0.0000
   31 U4     6px       -0.0000   -0.0000    0.0000    0.0000    0.0000   -0.0000   -0.0000    0.0000    0.0000    0.0000
   32 U4     7px       -0.0000   -0.0000    0.0000    0.0000   -0.0000   -0.0000    0.0000   -0.0000    0.0000   -0.0000
   33 U4     2py        0.0000    0.0000    0.1118    0.0514    0.9924   -0.0000   -0.0000   -0.0000   -0.0000   -0.0000
   34 U4     3py       -0.0000    0.0000    0.0000    0.0000    0.0000    0.0000    0.1211    0.9924    0.0215   -0.0000
   35 U4     4py        0.0000   -0.0000   -0.0000   -0.0000   -0.0000    0.0000   -0.0000   -0.0000   -0.0000    0.0000
   36 U4     5py       -0.0000    0.0000    0.0000    0.0000    0.0000   -0.0000    0.0000    0.0000    0.0000   -0.0000
   37 U4     6py       -0.0000   -0.0000    0.0000    0.0000   -0.0000   -0.0000   -0.0000   -0.0000    0.0000    0.0000
   38 U4     7py       -0.0000   -0.0000    0.0000    0.0000    0.0000   -0.0000    0.0000    0.0000    0.0000   -0.0000
   39 U4     2pz       -0.0000   -0.0000   -0.4176    0.9087   -0.0000    0.0000    0.0000    0.0000   -0.0000    0.0000
   40 U4     3pz        0.0000   -0.0000   -0.0000    0.0000   -0.0000   -0.0002   -0.1743   -0.0000    0.9847    0.0000
   41 U4     4pz       -0.0000    0.0000    0.0000   -0.0000    0.0000   -0.0000    0.0000    0.0000   -0.0000   -0.0000
   42 U4     5pz        0.0000   -0.0000   -0.0000    0.0000   -0.0000    0.0000   -0.0000   -0.0000    0.0000    0.0000
   43 U4     6pz       -0.0000    0.0000   -0.0000    0.0000    0.0000   -0.0000   -0.0000   -0.0000    0.0000    0.0000
   44 U4     7pz        0.0000   -0.0000   -0.0000    0.0000   -0.0000    0.0000   -0.0000   -0.0000    0.0000    0.0000
   45 U4     3d2-       0.0000    0.0000    0.0000    0.0000    0.0000   -0.0000    0.0000    0.0001    0.0000    0.2363
   46 U4     4d2-       0.0000   -0.0000   -0.0000   -0.0000   -0.0000    0.0000    0.0000    0.0000    0.0000   -0.0000
   47 U4     5d2-      -0.0000    0.0000    0.0000    0.0000    0.0000   -0.0000   -0.0000   -0.0000   -0.0000    0.0000
   48 U4     6d2-      -0.0000   -0.0000    0.0000    0.0000    0.0000   -0.0000    0.0000    0.0000    0.0000   -0.0000
   49 U4     3d1-       0.0000   -0.0000   -0.0000   -0.0000   -0.0000   -0.0000   -0.0000   -0.0001    0.0000   -0.0297
   50 U4     4d1-       0.0000    0.0000    0.0000   -0.0000    0.0000   -0.0000   -0.0000   -0.0000    0.0000    0.0000
   51 U4     5d1-      -0.0000    0.0000   -0.0000    0.0000   -0.0000    0.0000    0.0000    0.0000   -0.0000   -0.0000
   52 U4     6d1-       0.0000    0.0000    0.0000   -0.0000    0.0000    0.0000   -0.0000   -0.0000    0.0000    0.0000
   53 U4     3d0        0.0000   -0.0000    0.0000   -0.0000    0.0000   -0.0000   -0.0000   -0.0000   -0.0002    0.0792
   54 U4     4d0       -0.0000   -0.0000   -0.0000    0.0000   -0.0000   -0.0000   -0.0000   -0.0000   -0.0000   -0.0000
   55 U4     5d0        0.0000    0.0000    0.0000   -0.0000    0.0000    0.0000    0.0000   -0.0000    0.0000   -0.0000
   56 U4     6d0        0.0000    0.0000   -0.0000    0.0000   -0.0000    0.0000   -0.0000   -0.0000   -0.0000    0.0000
   57 U4     3d1+       0.0000   -0.0000   -0.0000   -0.0000    0.0000   -0.0000   -0.0002    0.0000    0.0000   -0.2398
   58 U4     4d1+       0.0000    0.0000    0.0000   -0.0000   -0.0000   -0.0000   -0.0000    0.0000    0.0000    0.0000
   59 U4     5d1+      -0.0000    0.0000   -0.0000    0.0000    0.0000    0.0000    0.0000   -0.0000   -0.0000   -0.0000
   60 U4     6d1+       0.0000    0.0000    0.0000   -0.0000   -0.0000    0.0000   -0.0000    0.0000    0.0000    0.0000
   61 U4     3d2+       0.0000    0.0000    0.0000    0.0000   -0.0000   -0.0000    0.0001   -0.0000    0.0000    0.9378
   62 U4     4d2+       0.0000   -0.0000   -0.0000   -0.0000    0.0000    0.0000    0.0000   -0.0000    0.0000   -0.0000
   63 U4     5d2+      -0.0000    0.0000    0.0000    0.0000   -0.0000   -0.0000   -0.0000    0.0000   -0.0000    0.0000
   64 U4     6d2+      -0.0000   -0.0000    0.0000    0.0000   -0.0000   -0.0000    0.0000   -0.0000    0.0000   -0.0000
   65 U4     4f3-      -0.0000   -0.0000    0.0000    0.0000   -0.0000   -0.0000   -0.0000   -0.0000   -0.0000    0.0000
   66 U4     5f3-      -0.0000   -0.0000    0.0000    0.0000    0.0000   -0.0000    0.0000    0.0000    0.0000   -0.0000
   67 U4     4f2-       0.0000   -0.0000   -0.0000    0.0000   -0.0000   -0.0000   -0.0000   -0.0000   -0.0000   -0.0000
   68 U4     5f2-       0.0000    0.0000    0.0000   -0.0000    0.0000    0.0000    0.0000    0.0000    0.0000    0.0000
   69 U4     4f1-      -0.0000   -0.0000   -0.0000   -0.0000   -0.0000   -0.0000   -0.0000   -0.0000   -0.0000    0.0000
   70 U4     5f1-      -0.0000    0.0000   -0.0000    0.0000    0.0000   -0.0000    0.0000    0.0000    0.0000   -0.0000
   71 U4     4f0       -0.0000   -0.0000    0.0000   -0.0000    0.0000    0.0000    0.0000    0.0000   -0.0000   -0.0000
   72 U4     5f0        0.0000    0.0000   -0.0000    0.0000   -0.0000   -0.0000   -0.0000   -0.0000    0.0000    0.0000
   73 U4     4f1+      -0.0000   -0.0000   -0.0000   -0.0000    0.0000   -0.0000   -0.0000    0.0000   -0.0000    0.0000
   74 U4     5f1+      -0.0000    0.0000   -0.0000    0.0000   -0.0000   -0.0000    0.0000   -0.0000    0.0000   -0.0000
   75 U4     4f2+       0.0000   -0.0000   -0.0000    0.0000    0.0000   -0.0000   -0.0000    0.0000   -0.0000   -0.0000
   76 U4     5f2+       0.0000    0.0000    0.0000   -0.0000   -0.0000    0.0000    0.0000   -0.0000    0.0000    0.0000
   77 U4     4f3+      -0.0000   -0.0000    0.0000    0.0000    0.0000   -0.0000   -0.0000    0.0000   -0.0000    0.0000
   78 U4     5f3+      -0.0000   -0.0000    0.0000    0.0000   -0.0000   -0.0000    0.0000   -0.0000    0.0000   -0.0000
   79 O5     1s         0.0000    0.0000   -0.0000   -0.0000   -0.0000    0.0000   -0.0000   -0.0000   -0.0000    0.0000
   80 O5     2s         0.0000    0.0000   -0.0000   -0.0000   -0.0000    0.0000   -0.0000   -0.0000   -0.0000    0.0000
   81 O5     2px       -0.0000   -0.0000    0.0000    0.0000    0.0000   -0.0000    0.0000    0.0000    0.0000    0.0000
   82 O5     2py        0.0000   -0.0000    0.0000    0.0000    0.0000    0.0000    0.0000    0.0000    0.0000    0.0000
   83 O5     2pz        0.0000    0.0000   -0.0000   -0.0000   -0.0000    0.0000    0.0000    0.0000   -0.0000   -0.0000
   84 O6     1s         0.0000    0.0000   -0.0000   -0.0000    0.0000    0.0000   -0.0000    0.0000   -0.0000    0.0000
   85 O6     2s         0.0000    0.0000   -0.0000   -0.0000    0.0000    0.0000   -0.0000    0.0000   -0.0000    0.0000
   86 O6     2px        0.0000    0.0000    0.0000    0.0000   -0.0000    0.0000    0.0000   -0.0000   -0.0000   -0.0000
   87 O6     2py       -0.0000   -0.0000   -0.0000   -0.0000    0.0000   -0.0000   -0.0000    0.0000   -0.0000    0.0000
   88 O6     2pz       -0.0000   -0.0000   -0.0000   -0.0000   -0.0000   -0.0000   -0.0000    0.0000    0.0000    0.0000
   89 O7     1s         0.0000    0.0000    0.0000   -0.0000    0.0000    0.0000    0.0000    0.0000   -0.0000   -0.0000
   90 O7     2s        -0.0000    0.0000    0.0000   -0.0000    0.0000   -0.0000    0.0000    0.0000   -0.0000   -0.0000
   91 O7     2px        0.0000    0.0000   -0.0000   -0.0000    0.0000    0.0000   -0.0000    0.0000   -0.0000    0.0000
   92 O7     2py        0.0000    0.0000   -0.0000   -0.0000   -0.0000    0.0000   -0.0000   -0.0000   -0.0000    0.0000
   93 O7     2pz        0.0000    0.0000   -0.0000    0.0000    0.0000    0.0000   -0.0000   -0.0000    0.0000    0.0000
   94 O8     1s         0.0000    0.0000   -0.0000    0.0000   -0.0000    0.0000    0.0000    0.0000    0.0000   -0.0000
   95 O8     2s        -0.0000    0.0000   -0.0000    0.0000   -0.0000   -0.0000    0.0000    0.0000    0.0000   -0.0000
   96 O8     2px       -0.0000   -0.0000   -0.0000   -0.0000    0.0000   -0.0000   -0.0000    0.0000    0.0000   -0.0000
   97 O8     2py       -0.0000   -0.0000   -0.0000   -0.0000   -0.0000   -0.0000   -0.0000   -0.0000    0.0000   -0.0000
   98 O8     2pz       -0.0000   -0.0000    0.0000    0.0000    0.0000   -0.0000    0.0000    0.0000    0.0000   -0.0000
   99 H9     1s         0.0000    0.0000    0.0000    0.0000   -0.0000    0.0000    0.0000   -0.0000    0.0000   -0.0000
  100 H10    1s        -0.0000   -0.0000   -0.0000   -0.0000   -0.0000   -0.0000   -0.0000   -0.0000    0.0000    0.0000
  101 H11    1s         0.0000    0.0000    0.0000    0.0000    0.0000    0.0000    0.0000    0.0000    0.0000   -0.0000
  102 O12    1s         0.0000    0.0000   -0.0000   -0.0000    0.0000    0.0000   -0.0000    0.0000   -0.0000    0.0000
  103 O12    2s         0.0000    0.0000   -0.0000   -0.0000    0.0000    0.0000   -0.0000    0.0000   -0.0000    0.0000
  104 O12    2px       -0.0000   -0.0000    0.0000    0.0000   -0.0000   -0.0000    0.0000   -0.0000    0.0000    0.0000
  105 O12    2py       -0.0000   -0.0000   -0.0000   -0.0000    0.0000   -0.0000   -0.0000    0.0000    0.0000    0.0000
  106 O12    2pz        0.0000    0.0000   -0.0000   -0.0000    0.0000    0.0000    0.0000   -0.0000   -0.0000   -0.0000
 
 
      Orbital               11        12        13        14        15        16        17        18        19        20
      Energy         -135.1497 -135.1485 -135.1484 -135.1475  -92.4115  -54.3089  -42.0888  -42.0880  -42.0825  -28.8483
      Occ. No.          2.0000    2.0000    2.0000    2.0000    2.0000    2.0000    2.0000    2.0000    2.0000    2.0000
 
    1 C1     1s         0.0000   -0.0000   -0.0000   -0.0000   -0.0000   -0.0000    0.0000    0.0000    0.0000    0.0000
    2 C1     2s         0.0000   -0.0000   -0.0000    0.0000    0.0000   -0.0000   -0.0000   -0.0000    0.0000    0.0000
    3 C1     2px       -0.0000    0.0000    0.0000    0.0000    0.0000   -0.0000   -0.0000   -0.0000   -0.0000   -0.0000
    4 C1     2py        0.0000    0.0000   -0.0000    0.0000    0.0000   -0.0000   -0.0000    0.0000   -0.0000    0.0000
    5 C1     2pz        0.0000    0.0000    0.0000    0.0000    0.0000   -0.0000   -0.0000   -0.0000   -0.0000    0.0000
    6 S2     1s         0.0000    0.0000    0.0000    0.0000    1.0000   -0.0000   -0.0000   -0.0000   -0.0000   -0.0000
    7 S2     2s         0.0000    0.0000    0.0000    0.0000   -0.0000   -0.0000   -0.0000   -0.0000   -0.0000   -0.0000
    8 S2     3s         0.0000    0.0000    0.0000    0.0000   -0.0004    0.0000   -0.0000   -0.0000   -0.0000   -0.0000
    9 S2     2px        0.0000    0.0000   -0.0000   -0.0000    0.0001    0.0000   -0.0000   -0.0000   -0.0000    0.0000
   10 S2     3px       -0.0000    0.0000   -0.0000    0.0000   -0.0000    0.0000   -0.0000   -0.0000   -0.0000   -0.0000
   11 S2     2py       -0.0000    0.0000    0.0000   -0.0000    0.0000    0.0000   -0.0000    0.0000   -0.0000   -0.0000
   12 S2     3py        0.0000    0.0000    0.0000    0.0000   -0.0000    0.0000   -0.0000    0.0000   -0.0000    0.0000
   13 S2     2pz       -0.0000   -0.0000   -0.0000    0.0000   -0.0001   -0.0000   -0.0000   -0.0000    0.0000   -0.0000
   14 S2     3pz       -0.0000   -0.0000   -0.0000    0.0000    0.0000   -0.0000   -0.0000   -0.0000    0.0000   -0.0000
   15 O3     1s         0.0000    0.0000    0.0000    0.0000    0.0000    0.0000   -0.0000   -0.0000   -0.0000    0.0000
   16 O3     2s         0.0000   -0.0000   -0.0000    0.0000    0.0000    0.0000   -0.0000   -0.0000   -0.0000    0.0000
   17 O3     2px       -0.0000   -0.0000   -0.0000    0.0000    0.0000    0.0000    0.0000    0.0000    0.0000    0.0000
   18 O3     2py       -0.0000   -0.0000   -0.0000    0.0000    0.0000    0.0000    0.0000    0.0000    0.0000   -0.0000
   19 O3     2pz       -0.0000   -0.0000   -0.0000   -0.0000   -0.0000   -0.0000   -0.0000   -0.0000    0.0000    0.0000
   20 U4     1s         0.0000   -0.0000   -0.0000   -0.0000   -0.0000   -0.0000   -0.0000    0.0000    0.0000    0.0000
   21 U4     2s         0.0000    0.0000    0.0000    0.0000   -0.0000    0.0000    0.0000    0.0000   -0.0000    0.0000
   22 U4     3s         0.0000    0.0000    0.0000    0.0000   -0.0000    0.0000   -0.0000   -0.0000    0.0000   -0.0000
   23 U4     4s        -0.0000   -0.0000   -0.0000    0.0000   -0.0000    1.0000   -0.0006   -0.0000    0.0007   -0.0000
   24 U4     5s        -0.0000   -0.0000   -0.0000   -0.0000   -0.0000   -0.0001    0.0000    0.0000   -0.0000    0.0000
   25 U4     6s         0.0000    0.0000    0.0000    0.0000   -0.0000    0.0000   -0.0000    0.0000    0.0000   -0.0000
   26 U4     7s        -0.0000   -0.0000   -0.0000   -0.0000   -0.0000   -0.0000    0.0000    0.0000   -0.0000    0.0000
   27 U4     2px        0.0000    0.0000   -0.0000    0.0000    0.0000    0.0000    0.0000   -0.0000    0.0000    0.0000
   28 U4     3px        0.0000    0.0001   -0.0000    0.0001    0.0000   -0.0000    0.0000   -0.0000    0.0000   -0.0000
   29 U4     4px       -0.0000   -0.0000    0.0000   -0.0000    0.0000    0.0004    0.9730   -0.1229    0.1954   -0.0001
   30 U4     5px        0.0000    0.0000   -0.0000    0.0000    0.0000   -0.0000   -0.0002    0.0000   -0.0000    0.0000
   31 U4     6px        0.0000    0.0000   -0.0000   -0.0000    0.0000    0.0000    0.0000   -0.0000    0.0000   -0.0000
   32 U4     7px        0.0000   -0.0000   -0.0000    0.0000    0.0000   -0.0000   -0.0000    0.0000   -0.0000    0.0000
   33 U4     2py       -0.0000    0.0000    0.0000    0.0000    0.0000    0.0000    0.0000    0.0000    0.0000   -0.0000
   34 U4     3py       -0.0001    0.0000    0.0001    0.0000    0.0000   -0.0000    0.0000    0.0000    0.0000    0.0000
   35 U4     4py        0.0000   -0.0000   -0.0000   -0.0000    0.0000    0.0000    0.1205    0.9924    0.0242    0.0004
   36 U4     5py       -0.0000    0.0000    0.0000    0.0000    0.0000   -0.0000   -0.0000   -0.0002   -0.0000   -0.0000
   37 U4     6py       -0.0000    0.0000    0.0000   -0.0000    0.0000    0.0000    0.0000    0.0000    0.0000    0.0000
   38 U4     7py       -0.0000   -0.0000    0.0000    0.0000    0.0000   -0.0000   -0.0000   -0.0000   -0.0000   -0.0000
   39 U4     2pz       -0.0000   -0.0000   -0.0000    0.0000   -0.0000   -0.0000   -0.0000   -0.0000    0.0000    0.0000
   40 U4     3pz       -0.0000   -0.0001   -0.0000    0.0002   -0.0000    0.0000   -0.0000   -0.0000    0.0000   -0.0000
   41 U4     4pz        0.0000    0.0000    0.0000   -0.0000   -0.0000   -0.0008   -0.1969   -0.0000    0.9804   -0.0000
   42 U4     5pz       -0.0000   -0.0000   -0.0000   -0.0000   -0.0000    0.0000    0.0000    0.0000   -0.0001   -0.0000
   43 U4     6pz        0.0000    0.0000    0.0000    0.0000   -0.0000   -0.0000   -0.0000   -0.0000    0.0000   -0.0000
   44 U4     7pz        0.0000    0.0000    0.0000    0.0000   -0.0000    0.0000    0.0000    0.0000   -0.0000   -0.0000
   45 U4     3d2-       0.9352    0.0613    0.2566   -0.0067   -0.0000   -0.0000   -0.0000   -0.0000   -0.0000   -0.0000
   46 U4     4d2-      -0.0000   -0.0000   -0.0000    0.0000   -0.0000   -0.0000    0.0001    0.0003    0.0000   -0.9390
   47 U4     5d2-       0.0000    0.0000    0.0000   -0.0000   -0.0000    0.0000    0.0000   -0.0000   -0.0000    0.0003
   48 U4     6d2-      -0.0000   -0.0000   -0.0000   -0.0000   -0.0000   -0.0000    0.0000    0.0000    0.0000   -0.0001
   49 U4     3d1-      -0.2625    0.1149    0.9572    0.0260   -0.0000    0.0000    0.0000    0.0000   -0.0000    0.0000
   50 U4     4d1-       0.0000   -0.0000   -0.0000   -0.0000    0.0000   -0.0000   -0.0001   -0.0005    0.0000    0.2478
   51 U4     5d1-      -0.0000    0.0000    0.0000    0.0000    0.0000    0.0000    0.0000    0.0000   -0.0000   -0.0001
   52 U4     6d1-       0.0000   -0.0000   -0.0000   -0.0000    0.0000    0.0000   -0.0000   -0.0000    0.0000    0.0000
   53 U4     3d0        0.0000   -0.1972   -0.0004    0.9772    0.0000   -0.0000    0.0000    0.0000    0.0000   -0.0000
   54 U4     4d0        0.0000    0.0000    0.0000   -0.0000    0.0000   -0.0002   -0.0001   -0.0000   -0.0007   -0.0000
   55 U4     5d0       -0.0000   -0.0000   -0.0000    0.0000    0.0000    0.0000   -0.0000   -0.0000    0.0000   -0.0000
   56 U4     6d0        0.0000    0.0000    0.0000    0.0000    0.0000    0.0000   -0.0000   -0.0000   -0.0000   -0.0000
   57 U4     3d1+       0.0326    0.9402   -0.1171    0.2092   -0.0000    0.0000    0.0000   -0.0000   -0.0000   -0.0000
   58 U4     4d1+      -0.0000   -0.0000    0.0000   -0.0000    0.0000   -0.0001   -0.0006    0.0001    0.0001   -0.0308
   59 U4     5d1+       0.0000    0.0000   -0.0000    0.0000    0.0000    0.0000    0.0000   -0.0000   -0.0000    0.0000
   60 U4     6d1+      -0.0000   -0.0000    0.0000   -0.0000    0.0000    0.0000   -0.0000    0.0000    0.0000   -0.0000
   61 U4     3d2+      -0.2356    0.2452   -0.0642   -0.0265   -0.0000   -0.0000   -0.0000    0.0000   -0.0000    0.0000
   62 U4     4d2+       0.0000   -0.0000    0.0000    0.0000   -0.0000   -0.0000    0.0003   -0.0001    0.0000    0.2366
   63 U4     5d2+      -0.0000    0.0000   -0.0000   -0.0000   -0.0000    0.0000    0.0000    0.0000   -0.0000   -0.0001
   64 U4     6d2+       0.0000   -0.0000    0.0000   -0.0000   -0.0000   -0.0000    0.0000   -0.0000    0.0000    0.0000
   65 U4     4f3-       0.0000    0.0000    0.0000   -0.0000    0.0000    0.0000    0.0000    0.0000    0.0000   -0.0002
   66 U4     5f3-      -0.0000   -0.0000   -0.0000    0.0000    0.0000   -0.0000    0.0000    0.0000    0.0000   -0.0000
   67 U4     4f2-      -0.0000    0.0000    0.0000    0.0000   -0.0000   -0.0000   -0.0000   -0.0000    0.0000    0.0004
   68 U4     5f2-       0.0000   -0.0000   -0.0000   -0.0000   -0.0000   -0.0000    0.0000    0.0000    0.0000   -0.0000
   69 U4     4f1-       0.0000   -0.0000   -0.0000    0.0000   -0.0000   -0.0000   -0.0000   -0.0000   -0.0000   -0.0000
   70 U4     5f1-      -0.0000    0.0000    0.0000   -0.0000   -0.0000    0.0000    0.0000    0.0000    0.0000    0.0000
   71 U4     4f0       -0.0000   -0.0000   -0.0000   -0.0000   -0.0000   -0.0000    0.0000    0.0000   -0.0000    0.0000
   72 U4     5f0        0.0000    0.0000    0.0000    0.0000   -0.0000    0.0000   -0.0000   -0.0000    0.0000    0.0000
   73 U4     4f1+      -0.0000   -0.0000    0.0000    0.0000   -0.0000   -0.0000   -0.0001    0.0000   -0.0000    0.0000
   74 U4     5f1+       0.0000    0.0000   -0.0000   -0.0000   -0.0000    0.0000    0.0000   -0.0000    0.0000   -0.0000
   75 U4     4f2+       0.0000    0.0000   -0.0000    0.0000   -0.0000   -0.0000   -0.0000    0.0000    0.0000   -0.0001
   76 U4     5f2+      -0.0000   -0.0000    0.0000   -0.0000   -0.0000   -0.0000    0.0000   -0.0000    0.0000    0.0000
   77 U4     4f3+      -0.0000    0.0000   -0.0000   -0.0000    0.0000    0.0000    0.0000   -0.0000    0.0000    0.0001
   78 U4     5f3+       0.0000   -0.0000    0.0000    0.0000    0.0000   -0.0000    0.0000   -0.0000    0.0000    0.0000
   79 O5     1s         0.0000    0.0000    0.0000    0.0000   -0.0000    0.0000   -0.0000   -0.0000   -0.0000    0.0000
   80 O5     2s         0.0000    0.0000    0.0000    0.0000   -0.0000    0.0000   -0.0000   -0.0000   -0.0000   -0.0000
   81 O5     2px        0.0000   -0.0000    0.0000   -0.0000   -0.0000   -0.0000    0.0000    0.0000    0.0000    0.0000
   82 O5     2py        0.0000   -0.0000    0.0000   -0.0000   -0.0000    0.0000    0.0000    0.0000    0.0000    0.0000
   83 O5     2pz       -0.0000    0.0000    0.0000    0.0000    0.0000    0.0000   -0.0000   -0.0000   -0.0000   -0.0000
   84 O6     1s        -0.0000    0.0000   -0.0000    0.0000    0.0000    0.0000   -0.0000    0.0000   -0.0000   -0.0000
   85 O6     2s        -0.0000   -0.0000    0.0000    0.0000    0.0000    0.0000   -0.0000    0.0000   -0.0000   -0.0000
   86 O6     2px        0.0000   -0.0000    0.0000    0.0000    0.0000    0.0000    0.0000   -0.0000    0.0000    0.0000
   87 O6     2py       -0.0000    0.0000   -0.0000   -0.0000   -0.0000   -0.0000   -0.0000    0.0000   -0.0000   -0.0000
   88 O6     2pz        0.0000   -0.0000    0.0000   -0.0000   -0.0000   -0.0000   -0.0000    0.0000    0.0000   -0.0000
   89 O7     1s        -0.0000    0.0000    0.0000   -0.0000    0.0000    0.0000    0.0000    0.0000   -0.0000   -0.0000
   90 O7     2s        -0.0000   -0.0000    0.0000   -0.0000    0.0000    0.0000    0.0000    0.0000   -0.0000   -0.0000
   91 O7     2px       -0.0000   -0.0000    0.0000   -0.0000   -0.0000    0.0000    0.0000    0.0000   -0.0000   -0.0000
   92 O7     2py        0.0000   -0.0000   -0.0000   -0.0000   -0.0000    0.0000    0.0000   -0.0000   -0.0000    0.0000
   93 O7     2pz        0.0000   -0.0000   -0.0000    0.0000    0.0000    0.0000   -0.0000   -0.0000    0.0000   -0.0000
   94 O8     1s        -0.0000    0.0000    0.0000   -0.0000    0.0000    0.0000   -0.0000   -0.0000    0.0000   -0.0000
   95 O8     2s        -0.0000    0.0000    0.0000   -0.0000    0.0000    0.0000    0.0000    0.0000    0.0000   -0.0000
   96 O8     2px        0.0000   -0.0000    0.0000   -0.0000   -0.0000   -0.0000   -0.0000    0.0000    0.0000    0.0000
   97 O8     2py       -0.0000   -0.0000   -0.0000   -0.0000   -0.0000   -0.0000   -0.0000   -0.0000    0.0000   -0.0000
   98 O8     2pz       -0.0000    0.0000    0.0000   -0.0000   -0.0000   -0.0000    0.0000    0.0000    0.0000   -0.0000
   99 H9     1s         0.0000   -0.0000    0.0000    0.0000   -0.0000    0.0000    0.0000   -0.0000    0.0000    0.0000
  100 H10    1s        -0.0000    0.0000    0.0000    0.0000   -0.0000   -0.0000   -0.0000   -0.0000   -0.0000   -0.0000
  101 H11    1s        -0.0000   -0.0000   -0.0000    0.0000   -0.0000    0.0000    0.0000    0.0000    0.0000   -0.0000
  102 O12    1s        -0.0000    0.0000   -0.0000    0.0000   -0.0000    0.0000   -0.0000    0.0000   -0.0000   -0.0000
  103 O12    2s        -0.0000    0.0000   -0.0000    0.0000   -0.0000    0.0000   -0.0000    0.0000   -0.0000    0.0000
  104 O12    2px       -0.0000   -0.0000   -0.0000   -0.0000   -0.0000   -0.0000    0.0000   -0.0000    0.0000   -0.0000
  105 O12    2py        0.0000    0.0000    0.0000   -0.0000    0.0000   -0.0000   -0.0000    0.0000   -0.0000    0.0000
  106 O12    2pz        0.0000    0.0000   -0.0000    0.0000    0.0000    0.0000   -0.0000    0.0000   -0.0000    0.0000
 
 
      Orbital               21        22        23        24        25        26        27        28        29        30
      Energy          -28.8479  -28.8454  -28.8451  -28.8434  -20.4821  -20.3047  -20.2616  -20.2615  -20.2480  -20.2477
      Occ. No.          2.0000    2.0000    2.0000    2.0000    2.0000    2.0000    2.0000    2.0000    2.0000    2.0000
 
    1 C1     1s         0.0000    0.0000    0.0000    0.0000    0.0000   -0.0000    0.0000   -0.0000    0.0000   -0.0000
    2 C1     2s         0.0000    0.0000    0.0000    0.0000    0.0000   -0.0000   -0.0000    0.0000    0.0000   -0.0000
    3 C1     2px        0.0000   -0.0000    0.0000   -0.0000    0.0000    0.0000   -0.0000   -0.0000   -0.0000    0.0000
    4 C1     2py        0.0000   -0.0000   -0.0000   -0.0000    0.0000    0.0000    0.0000   -0.0000   -0.0000    0.0000
    5 C1     2pz       -0.0000   -0.0000   -0.0000   -0.0000    0.0000    0.0000   -0.0000    0.0000   -0.0000    0.0000
    6 S2     1s        -0.0000   -0.0000   -0.0000    0.0000    0.0000    0.0000   -0.0000    0.0000   -0.0000    0.0000
    7 S2     2s        -0.0000   -0.0000   -0.0000    0.0000    0.0000    0.0000   -0.0000    0.0003   -0.0000    0.0000
    8 S2     3s        -0.0000   -0.0000   -0.0000    0.0000    0.0000    0.0001   -0.0000    0.0013   -0.0000    0.0000
    9 S2     2px       -0.0000   -0.0000   -0.0000    0.0000    0.0000    0.0000    0.0000    0.0001   -0.0000   -0.0000
   10 S2     3px       -0.0000   -0.0000   -0.0000    0.0000    0.0000    0.0000    0.0001    0.0007    0.0000   -0.0000
   11 S2     2py       -0.0000   -0.0000    0.0000    0.0000    0.0000    0.0000   -0.0001    0.0000   -0.0000    0.0000
   12 S2     3py       -0.0000   -0.0000    0.0000    0.0000    0.0000    0.0000   -0.0010    0.0001    0.0000    0.0000
   13 S2     2pz       -0.0000    0.0000    0.0000    0.0000    0.0000   -0.0000   -0.0000    0.0000   -0.0000    0.0000
   14 S2     3pz       -0.0000    0.0000    0.0000    0.0000    0.0000   -0.0000   -0.0000    0.0001   -0.0000    0.0000
   15 O3     1s        -0.0000   -0.0000   -0.0000    0.0000   -0.0000   -0.0000   -0.6885   -0.7254    0.0000   -0.0000
   16 O3     2s        -0.0000   -0.0000   -0.0000    0.0000    0.0000    0.0000   -0.0012   -0.0013   -0.0000   -0.0000
   17 O3     2px        0.0000    0.0000   -0.0000   -0.0000   -0.0000   -0.0000    0.0007    0.0007   -0.0000   -0.0000
   18 O3     2py       -0.0000    0.0000    0.0000   -0.0000   -0.0000   -0.0000   -0.0011   -0.0012    0.0000   -0.0000
   19 O3     2pz       -0.0000    0.0000    0.0000    0.0000    0.0000   -0.0000    0.0001    0.0001   -0.0000    0.0000
   20 U4     1s        -0.0000    0.0000    0.0000   -0.0000   -0.0000   -0.0000   -0.0000    0.0000   -0.0000    0.0000
   21 U4     2s         0.0000   -0.0000   -0.0000    0.0000   -0.0000   -0.0000   -0.0000    0.0000   -0.0000    0.0000
   22 U4     3s        -0.0000    0.0000    0.0000    0.0000   -0.0000   -0.0000   -0.0000    0.0000   -0.0000    0.0000
   23 U4     4s        -0.0000    0.0000    0.0000    0.0002   -0.0000   -0.0001   -0.0000    0.0000   -0.0000    0.0000
   24 U4     5s         0.0001   -0.0000   -0.0000    0.0001   -0.0002   -0.0002   -0.0000    0.0000   -0.0001    0.0000
   25 U4     6s        -0.0000    0.0000    0.0000   -0.0000   -0.0005   -0.0006   -0.0000    0.0001   -0.0004    0.0000
   26 U4     7s         0.0000    0.0000    0.0000   -0.0000   -0.0006   -0.0006   -0.0000    0.0003   -0.0006    0.0000
   27 U4     2px        0.0000   -0.0000    0.0000   -0.0000    0.0000    0.0000    0.0000   -0.0000   -0.0000   -0.0000
   28 U4     3px       -0.0000    0.0000   -0.0000    0.0000    0.0000    0.0000    0.0000   -0.0000   -0.0000   -0.0000
   29 U4     4px       -0.0004    0.0003   -0.0001    0.0003    0.0000    0.0000    0.0000   -0.0000   -0.0000   -0.0000
   30 U4     5px        0.0000    0.0000   -0.0000   -0.0000    0.0000    0.0000    0.0000   -0.0000   -0.0001   -0.0000
   31 U4     6px       -0.0000   -0.0000    0.0000    0.0000    0.0000    0.0001    0.0000   -0.0002   -0.0006   -0.0000
   32 U4     7px        0.0000   -0.0000    0.0000   -0.0000    0.0000    0.0002    0.0000   -0.0004   -0.0008    0.0000
   33 U4     2py        0.0000   -0.0000   -0.0000   -0.0000    0.0000    0.0000   -0.0000   -0.0000   -0.0000    0.0000
   34 U4     3py       -0.0000    0.0000    0.0000    0.0000    0.0000    0.0000   -0.0000   -0.0000   -0.0000    0.0000
   35 U4     4py       -0.0001    0.0000    0.0004    0.0000    0.0000    0.0000   -0.0000   -0.0000   -0.0000    0.0000
   36 U4     5py        0.0000    0.0000    0.0000   -0.0000    0.0000    0.0000   -0.0000   -0.0000   -0.0000    0.0000
   37 U4     6py       -0.0000   -0.0000   -0.0000    0.0000    0.0000    0.0000   -0.0000   -0.0000   -0.0001    0.0001
   38 U4     7py        0.0000   -0.0000   -0.0000   -0.0000    0.0000    0.0000   -0.0000   -0.0000   -0.0001    0.0001
   39 U4     2pz       -0.0000    0.0000    0.0000   -0.0000   -0.0000    0.0000    0.0000   -0.0000    0.0000   -0.0000
   40 U4     3pz        0.0000   -0.0000   -0.0000    0.0000   -0.0000    0.0000    0.0000   -0.0000    0.0000   -0.0000
   41 U4     4pz        0.0001   -0.0004   -0.0000    0.0005   -0.0000    0.0000    0.0000   -0.0000    0.0000   -0.0000
   42 U4     5pz       -0.0000   -0.0000   -0.0000    0.0000   -0.0001    0.0001    0.0000   -0.0000    0.0000   -0.0000
   43 U4     6pz       -0.0000   -0.0000   -0.0000    0.0000   -0.0006    0.0007    0.0000   -0.0000    0.0000   -0.0000
   44 U4     7pz       -0.0000   -0.0000   -0.0000   -0.0000   -0.0005    0.0005   -0.0000   -0.0000    0.0000   -0.0000
   45 U4     3d2-       0.0000    0.0000    0.0000    0.0000    0.0000    0.0000    0.0000    0.0000   -0.0000    0.0000
   46 U4     4d2-       0.2335    0.0656    0.2421    0.0293    0.0000   -0.0000    0.0000    0.0000   -0.0000    0.0000
   47 U4     5d2-      -0.0001   -0.0000   -0.0001   -0.0000    0.0000    0.0000    0.0000    0.0000   -0.0000    0.0000
   48 U4     6d2-       0.0000    0.0000    0.0000    0.0000    0.0000   -0.0000    0.0001    0.0001   -0.0001    0.0002
   49 U4     3d1-      -0.0000    0.0000    0.0000    0.0000    0.0000   -0.0000    0.0000    0.0000    0.0000   -0.0000
   50 U4     4d1-      -0.0362    0.1104    0.9610    0.0398   -0.0000   -0.0000   -0.0000   -0.0000    0.0000   -0.0000
   51 U4     5d1-       0.0000   -0.0000   -0.0003   -0.0000    0.0000   -0.0000    0.0000   -0.0000    0.0000   -0.0000
   52 U4     6d1-      -0.0000    0.0000    0.0001    0.0000   -0.0000   -0.0000    0.0000   -0.0000    0.0000   -0.0000
   53 U4     3d0       -0.0000   -0.0000   -0.0000    0.0000   -0.0000   -0.0000    0.0000   -0.0000    0.0000   -0.0000
   54 U4     4d0       -0.0213   -0.3441   -0.0001    0.9387   -0.0000   -0.0000    0.0000   -0.0000    0.0000   -0.0000
   55 U4     5d0       -0.0000    0.0001    0.0000   -0.0002   -0.0001   -0.0001    0.0000   -0.0000    0.0000   -0.0000
   56 U4     6d0        0.0000   -0.0000   -0.0000    0.0000   -0.0006   -0.0006    0.0000   -0.0001    0.0004   -0.0000
   57 U4     3d1+      -0.0000    0.0000   -0.0000    0.0000    0.0000   -0.0000   -0.0000    0.0000    0.0000    0.0000
   58 U4     4d1+      -0.2914    0.8928   -0.1189    0.3207   -0.0000   -0.0000    0.0000   -0.0000    0.0000    0.0000
   59 U4     5d1+       0.0001   -0.0002    0.0000   -0.0001    0.0000   -0.0000   -0.0000   -0.0000    0.0000    0.0000
   60 U4     6d1+      -0.0000    0.0000   -0.0000    0.0000   -0.0000   -0.0002    0.0000   -0.0000    0.0001    0.0000
   61 U4     3d2+       0.0000    0.0000   -0.0000    0.0000    0.0000    0.0000   -0.0000    0.0000   -0.0000   -0.0000
   62 U4     4d2+       0.9267    0.2606   -0.0609    0.1166    0.0000   -0.0000   -0.0000    0.0000   -0.0000   -0.0000
   63 U4     5d2+      -0.0003   -0.0001    0.0000   -0.0000    0.0000    0.0000   -0.0000    0.0000   -0.0000   -0.0000
   64 U4     6d2+       0.0001    0.0000   -0.0000    0.0000    0.0000   -0.0000   -0.0000    0.0002   -0.0005   -0.0000
   65 U4     4f3-       0.0001    0.0000    0.0000    0.0000    0.0000    0.0000   -0.0000   -0.0000   -0.0000    0.0000
   66 U4     5f3-       0.0000   -0.0000    0.0000   -0.0000    0.0000    0.0000   -0.0000   -0.0000   -0.0000    0.0001
   67 U4     4f2-      -0.0001    0.0000    0.0001    0.0000   -0.0000    0.0000   -0.0000   -0.0000    0.0000   -0.0000
   68 U4     5f2-       0.0000   -0.0000   -0.0000   -0.0000   -0.0000    0.0000   -0.0000    0.0000    0.0000   -0.0000
   69 U4     4f1-       0.0000   -0.0001   -0.0005    0.0000    0.0000    0.0000    0.0000    0.0000    0.0000   -0.0000
   70 U4     5f1-      -0.0000    0.0000    0.0000   -0.0000   -0.0000    0.0000    0.0000    0.0000    0.0000   -0.0000
   71 U4     4f0        0.0001    0.0000    0.0000   -0.0005   -0.0000    0.0000    0.0000   -0.0000   -0.0000    0.0000
   72 U4     5f0        0.0000   -0.0000    0.0000   -0.0000   -0.0001    0.0001   -0.0000    0.0000   -0.0000    0.0000
   73 U4     4f1+       0.0001   -0.0005    0.0001    0.0000    0.0000    0.0000   -0.0000    0.0000    0.0000    0.0000
   74 U4     5f1+      -0.0000    0.0000   -0.0000   -0.0000   -0.0000    0.0000   -0.0000    0.0000    0.0001    0.0000
   75 U4     4f2+      -0.0004    0.0001   -0.0000    0.0000   -0.0000    0.0000    0.0000   -0.0000    0.0000    0.0000
   76 U4     5f2+       0.0000   -0.0000    0.0000   -0.0000   -0.0000    0.0000    0.0000    0.0000    0.0000    0.0000
   77 U4     4f3+       0.0003    0.0001   -0.0000    0.0000    0.0000    0.0000    0.0000    0.0000   -0.0000   -0.0000
   78 U4     5f3+       0.0000   -0.0000   -0.0000   -0.0000    0.0000    0.0000    0.0000   -0.0000   -0.0001   -0.0000
   79 O5     1s        -0.0000   -0.0000    0.0000    0.0000   -0.0000   -0.0001    0.0000    0.0000    0.6943   -0.7198
   80 O5     2s        -0.0000    0.0000    0.0000    0.0000   -0.0000   -0.0000   -0.0000    0.0000    0.0007   -0.0012
   81 O5     2px       -0.0000   -0.0000   -0.0000    0.0000    0.0000    0.0000    0.0000    0.0000   -0.0005    0.0004
   82 O5     2py       -0.0000   -0.0000   -0.0000    0.0000    0.0000    0.0000   -0.0000    0.0000   -0.0007    0.0012
   83 O5     2pz        0.0000   -0.0000    0.0000   -0.0000    0.0000   -0.0000   -0.0000   -0.0000    0.0001   -0.0001
   84 O6     1s        -0.0000   -0.0000    0.0000    0.0000   -0.0000   -0.0000    0.7254   -0.6885    0.0000    0.0000
   85 O6     2s        -0.0000   -0.0000    0.0000    0.0000    0.0000    0.0000    0.0013   -0.0013   -0.0000    0.0000
   86 O6     2px        0.0000    0.0000    0.0000   -0.0000   -0.0000   -0.0000   -0.0005    0.0003   -0.0000    0.0000
   87 O6     2py        0.0000   -0.0000    0.0000    0.0000    0.0000    0.0000   -0.0013    0.0013   -0.0000    0.0000
   88 O6     2pz       -0.0000    0.0000   -0.0000    0.0000    0.0000   -0.0000   -0.0001    0.0001   -0.0000   -0.0000
   89 O7     1s        -0.0000   -0.0000   -0.0000    0.0000    1.0001   -0.0000    0.0000   -0.0000   -0.0000    0.0000
   90 O7     2s        -0.0000   -0.0000   -0.0000    0.0000    0.0013    0.0001   -0.0000    0.0000   -0.0001    0.0000
   91 O7     2px        0.0000   -0.0000   -0.0000    0.0000   -0.0000    0.0000   -0.0000    0.0000    0.0001   -0.0000
   92 O7     2py        0.0000   -0.0000    0.0000    0.0000   -0.0000    0.0000   -0.0000    0.0000    0.0000   -0.0000
   93 O7     2pz       -0.0000    0.0000    0.0000   -0.0000   -0.0011   -0.0000    0.0000   -0.0000    0.0001   -0.0000
   94 O8     1s        -0.0000   -0.0000   -0.0000    0.0000    0.0000    1.0001    0.0000   -0.0000    0.0001   -0.0000
   95 O8     2s        -0.0000   -0.0000   -0.0000    0.0000    0.0001    0.0015    0.0000   -0.0000   -0.0001    0.0000
   96 O8     2px        0.0000   -0.0000    0.0000    0.0000    0.0000    0.0001   -0.0000    0.0000    0.0000   -0.0000
   97 O8     2py        0.0000   -0.0000   -0.0000    0.0000    0.0000    0.0000   -0.0000    0.0000    0.0000    0.0000
   98 O8     2pz       -0.0000   -0.0000   -0.0000    0.0001    0.0000    0.0013   -0.0000    0.0000   -0.0001    0.0000
   99 H9     1s         0.0000    0.0000   -0.0000    0.0000    0.0000    0.0000    0.0000    0.0000   -0.0000   -0.0000
  100 H10    1s        -0.0000   -0.0000   -0.0000    0.0000    0.0000    0.0001    0.0000   -0.0000   -0.0000    0.0000
  101 H11    1s         0.0000    0.0000    0.0000    0.0000    0.0000    0.0000   -0.0000    0.0000   -0.0000    0.0000
  102 O12    1s        -0.0000   -0.0000   -0.0000    0.0000   -0.0000   -0.0001   -0.0000    0.0000    0.7197    0.6944
  103 O12    2s        -0.0000    0.0000   -0.0000    0.0000   -0.0000   -0.0000    0.0000    0.0000    0.0008    0.0012
  104 O12    2px       -0.0000   -0.0000    0.0000    0.0000    0.0000    0.0000   -0.0000    0.0000   -0.0007   -0.0007
  105 O12    2py        0.0000    0.0000   -0.0000   -0.0000   -0.0000   -0.0000   -0.0000   -0.0000    0.0006    0.0010
  106 O12    2pz        0.0000   -0.0000   -0.0000   -0.0000    0.0000   -0.0000    0.0000   -0.0000    0.0001    0.0001
 
 
      Orbital               31        32        33        34        35        36        37        38        39        40
      Energy          -15.0602  -15.0597  -15.0592  -15.0583  -15.0576  -15.0535  -15.0530  -12.6173  -11.2234   -9.1547
      Occ. No.          2.0000    2.0000    2.0000    2.0000    2.0000    2.0000    2.0000    2.0000    2.0000    2.0000
 
    1 C1     1s         0.0000    0.0000    0.0000   -0.0000    0.0000    0.0000   -0.0000   -0.0000    1.0003   -0.0001
    2 C1     2s        -0.0000   -0.0000    0.0000   -0.0000    0.0000    0.0000   -0.0000   -0.0000    0.0014   -0.0000
    3 C1     2px        0.0000   -0.0000    0.0000    0.0000    0.0000    0.0000   -0.0000   -0.0000   -0.0002   -0.0001
    4 C1     2py       -0.0000   -0.0000    0.0000   -0.0000    0.0000   -0.0000   -0.0000   -0.0000   -0.0000   -0.0000
    5 C1     2pz       -0.0000   -0.0000   -0.0000    0.0000    0.0000   -0.0000    0.0000   -0.0000    0.0002    0.0001
    6 S2     1s         0.0000   -0.0000    0.0000    0.0000    0.0000    0.0000   -0.0000   -0.0000   -0.0000    0.0000
    7 S2     2s         0.0000   -0.0000    0.0000    0.0000    0.0000    0.0000   -0.0000   -0.0000   -0.0002    0.9998
    8 S2     3s        -0.0000    0.0000    0.0000   -0.0000    0.0000    0.0000   -0.0000   -0.0001   -0.0007    0.0059
    9 S2     2px        0.0000    0.0000   -0.0000    0.0000   -0.0000   -0.0000    0.0000   -0.0000    0.0000    0.0142
   10 S2     3px        0.0000    0.0000   -0.0000    0.0000   -0.0000   -0.0000    0.0000    0.0000    0.0004    0.0008
   11 S2     2py       -0.0000    0.0000   -0.0000   -0.0000   -0.0000    0.0000    0.0000   -0.0000    0.0000    0.0018
   12 S2     3py       -0.0000    0.0000   -0.0000   -0.0000   -0.0000    0.0000    0.0000    0.0000    0.0000    0.0001
   13 S2     2pz       -0.0000    0.0000    0.0000   -0.0000   -0.0000    0.0000   -0.0000   -0.0000    0.0001   -0.0099
   14 S2     3pz       -0.0000    0.0000    0.0000   -0.0000    0.0000   -0.0000    0.0000   -0.0000    0.0005   -0.0005
   15 O3     1s        -0.0000    0.0000    0.0000   -0.0000   -0.0000    0.0000    0.0000    0.0000    0.0000   -0.0001
   16 O3     2s        -0.0000    0.0000   -0.0000   -0.0000   -0.0000    0.0000    0.0000    0.0000   -0.0000    0.0001
   17 O3     2px       -0.0000    0.0000    0.0000   -0.0000    0.0000    0.0000    0.0000    0.0001    0.0001   -0.0003
   18 O3     2py       -0.0000    0.0000   -0.0000   -0.0000   -0.0000    0.0000    0.0000    0.0001   -0.0000    0.0001
   19 O3     2pz        0.0000   -0.0000   -0.0000    0.0000    0.0000    0.0000    0.0000    0.0000    0.0001    0.0001
   20 U4     1s         0.0000    0.0000   -0.0000   -0.0000   -0.0000    0.0000   -0.0000   -0.0000   -0.0000   -0.0000
   21 U4     2s         0.0000    0.0000   -0.0000   -0.0000   -0.0000   -0.0000    0.0000   -0.0000   -0.0000   -0.0000
   22 U4     3s         0.0000   -0.0000    0.0000   -0.0000   -0.0000   -0.0000    0.0000   -0.0000   -0.0000   -0.0000
   23 U4     4s        -0.0000    0.0000   -0.0000   -0.0000   -0.0000   -0.0000    0.0000    0.0001   -0.0000   -0.0000
   24 U4     5s        -0.0000    0.0001    0.0000    0.0000    0.0000    0.0000   -0.0001    1.0000   -0.0000    0.0000
   25 U4     6s         0.0000   -0.0000    0.0000    0.0000   -0.0000    0.0000   -0.0000   -0.0019   -0.0001    0.0000
   26 U4     7s        -0.0000    0.0000   -0.0000   -0.0000   -0.0000   -0.0000    0.0000   -0.0001   -0.0003    0.0000
   27 U4     2px       -0.0000   -0.0000   -0.0000   -0.0000    0.0000   -0.0000    0.0000   -0.0000    0.0000   -0.0000
   28 U4     3px       -0.0000   -0.0000   -0.0000   -0.0000    0.0000   -0.0000    0.0000    0.0000    0.0000   -0.0000
   29 U4     4px        0.0000   -0.0000   -0.0000   -0.0000    0.0000   -0.0000    0.0001   -0.0000    0.0000   -0.0000
   30 U4     5px       -0.0000    0.0000    0.0001    0.0000   -0.0000   -0.0000    0.0002    0.0006    0.0000   -0.0000
   31 U4     6px        0.0000    0.0000   -0.0000    0.0000    0.0000   -0.0000    0.0000   -0.0001    0.0001   -0.0000
   32 U4     7px        0.0000   -0.0000   -0.0000    0.0000   -0.0000    0.0000    0.0000   -0.0000    0.0004   -0.0000
   33 U4     2py        0.0000   -0.0000   -0.0000    0.0000    0.0000    0.0000    0.0000   -0.0000    0.0000   -0.0000
[...]
 
      Total electronic charge=  166.000000
 
      Total            charge=   -1.000000
--
 
 

      Expectation values of various properties for root number:  8
      -----------------------------------------------------------
 
 
++    Molecular properties:
      ---------------------
 
      Charge (e):
                      =   -1.0000
      Dipole Moment (Debye):
      Origin of the operator (Ang)=    0.0000    0.0000    0.0000
                   X=  5.0239E-01               Y=  8.7818E-01               Z= -1.1942E+00           Total=  1.5651E+00
      Center of Charge (Ang)
                     X=   -0.10459412               Y=   -0.18283266               Z=    0.24861914
      Quadrupole Moment (Debye*Ang):
      Origin of the operator (Ang)=   -0.4300   -0.0533   -0.0710
                  XX= -1.1056E+02              XY=  1.5283E+00              XZ=  3.1598E+00              YY= -1.0099E+02
                  YZ=  2.9002E-01              ZZ= -1.1373E+02
      In traceless form (Debye*Ang)
                  XX= -3.2031E+00              XY=  2.2925E+00              XZ=  4.7397E+00              YY=  1.1154E+01
                  YZ=  4.3503E-01              ZZ= -7.9511E+00
--
 

      LoProp population analysis for root number:  8
      -----------------------------------------------
 
 
++    LoProp analysis:
      ----------------
 
 
 
  Input file to MOLDEN was generated!
 
 
++    Static properties:
      ------------------
 
 
      LoProp Charges per center
 

                   C1       S2       O3       U4       O5       O6       O7       O8       H9       H10   
      Nuclear      6.0000  16.0000   8.0000  92.0000   8.0000   8.0000   8.0000   8.0000   1.0000   1.0000
      Electronic  -6.4497 -15.0132  -8.8153 -89.5361  -8.2131  -8.8175  -8.9865  -8.9975  -0.8922  -0.8550
 
      Total       -0.4497   0.9868  -0.8153   2.4639  -0.2131  -0.8175  -0.9865  -0.9975   0.1078   0.1450
 

                   H11      O12   
      Nuclear      1.0000   8.0000
      Electronic  -0.8920  -8.5320
 
      Total        0.1080  -0.5320
--
 
 
      Natural Bond Order analysis for root number:  8
 
++    Natural Bond Order analysis
      ---------------------------
      Based on LoProp computed density
      -------------------------------------------------------------------------------------
      Atom A       Atom B       Bond Order | Atom A       Atom B       Bond Order
        C1           S2             1.000  |   U4           O7             2.999
        C1           H9             0.999  |   U4           O8             2.000
        C1           H10            1.000  |   S2           O3             0.981
        C1           H11            0.999  |   S2           O6             0.981
        O5           O12            1.923  |
      -------------------------------------------------------------------------------------
      NBO located    108.000 core electrons.
      NBO located     27.110 lone pair electrons.
      NBO located     25.765 electrons involved in    9 bonds.
      NBO located      0.994 non-bonded electrons on atom U4        
      The remaining    4.131 electrons are to be considered as diffuse
--
 
--
 
      Von Neumann Entropy (Root  9) =  0.23564
 

      Mulliken population analysis for root number:  9
      -----------------------------------------------
 
 
++    Molecular charges:
      ------------------
 
      Mulliken charges per centre and basis function type
      ---------------------------------------------------
 
                C1      S2      O3      U4      O5      O6      O7      O8      H9      H10     H11     O12   
      1s       2.0004  2.0000  2.0002  2.0000  2.0001  2.0002  2.0002  2.0003  0.8409  0.7992  0.8407  2.0002
      2s       1.2970  2.0003  1.9033  2.0000  1.9081  1.9031  1.8641  1.8615  0.0000  0.0000  0.0000  1.9020
      2px      1.1588  2.0001  1.3994  2.0000  1.7759  1.5921  1.6255  1.6228  0.0000  0.0000  0.0000  1.8421
      2pz      1.0157  2.0001  1.9159  2.0000  1.9532  1.9154  1.4963  1.5119  0.0000  0.0000  0.0000  1.9528
      2py      1.1259  2.0002  1.5261  2.0000  1.2460  1.3309  1.5991  1.6020  0.0000  0.0000  0.0000  0.8506
      3s       0.0000  1.6532  0.0000  2.0000  0.0000  0.0000  0.0000  0.0000  0.0000  0.0000  0.0000  0.0000
      3px      0.0000  1.3367  0.0000  2.0000  0.0000  0.0000  0.0000  0.0000  0.0000  0.0000  0.0000  0.0000
      3pz      0.0000  1.2087  0.0000  2.0000  0.0000  0.0000  0.0000  0.0000  0.0000  0.0000  0.0000  0.0000
      3py      0.0000  0.9018  0.0000  2.0000  0.0000  0.0000  0.0000  0.0000  0.0000  0.0000  0.0000  0.0000
      4s       0.0000  0.0000  0.0000  2.0000  0.0000  0.0000  0.0000  0.0000  0.0000  0.0000  0.0000  0.0000
      3d2+     0.0000  0.0000  0.0000  2.0000  0.0000  0.0000  0.0000  0.0000  0.0000  0.0000  0.0000  0.0000
      3d1+     0.0000  0.0000  0.0000  2.0000  0.0000  0.0000  0.0000  0.0000  0.0000  0.0000  0.0000  0.0000
      3d0      0.0000  0.0000  0.0000  2.0000  0.0000  0.0000  0.0000  0.0000  0.0000  0.0000  0.0000  0.0000
      3d1-     0.0000  0.0000  0.0000  2.0000  0.0000  0.0000  0.0000  0.0000  0.0000  0.0000  0.0000  0.0000
      3d2-     0.0000  0.0000  0.0000  2.0000  0.0000  0.0000  0.0000  0.0000  0.0000  0.0000  0.0000  0.0000
      4px      0.0000  0.0000  0.0000  2.0000  0.0000  0.0000  0.0000  0.0000  0.0000  0.0000  0.0000  0.0000
      4pz      0.0000  0.0000  0.0000  2.0000  0.0000  0.0000  0.0000  0.0000  0.0000  0.0000  0.0000  0.0000
      4py      0.0000  0.0000  0.0000  2.0000  0.0000  0.0000  0.0000  0.0000  0.0000  0.0000  0.0000  0.0000
      5s       0.0000  0.0000  0.0000  2.0000  0.0000  0.0000  0.0000  0.0000  0.0000  0.0000  0.0000  0.0000
      4d2+     0.0000  0.0000  0.0000  2.0000  0.0000  0.0000  0.0000  0.0000  0.0000  0.0000  0.0000  0.0000
      4d1+     0.0000  0.0000  0.0000  2.0000  0.0000  0.0000  0.0000  0.0000  0.0000  0.0000  0.0000  0.0000
      4d0      0.0000  0.0000  0.0000  2.0000  0.0000  0.0000  0.0000  0.0000  0.0000  0.0000  0.0000  0.0000
      4d1-     0.0000  0.0000  0.0000  2.0000  0.0000  0.0000  0.0000  0.0000  0.0000  0.0000  0.0000  0.0000
      4d2-     0.0000  0.0000  0.0000  2.0000  0.0000  0.0000  0.0000  0.0000  0.0000  0.0000  0.0000  0.0000
      5px      0.0000  0.0000  0.0000  2.0000  0.0000  0.0000  0.0000  0.0000  0.0000  0.0000  0.0000  0.0000
      5pz      0.0000  0.0000  0.0000  2.0001  0.0000  0.0000  0.0000  0.0000  0.0000  0.0000  0.0000  0.0000
      5py      0.0000  0.0000  0.0000  2.0000  0.0000  0.0000  0.0000  0.0000  0.0000  0.0000  0.0000  0.0000
      6s       0.0000  0.0000  0.0000  1.9844  0.0000  0.0000  0.0000  0.0000  0.0000  0.0000  0.0000  0.0000
      4f3+     0.0000  0.0000  0.0000  2.0000  0.0000  0.0000  0.0000  0.0000  0.0000  0.0000  0.0000  0.0000
      4f2+     0.0000  0.0000  0.0000  2.0000  0.0000  0.0000  0.0000  0.0000  0.0000  0.0000  0.0000  0.0000
      4f1+     0.0000  0.0000  0.0000  2.0000  0.0000  0.0000  0.0000  0.0000  0.0000  0.0000  0.0000  0.0000
      4f0      0.0000  0.0000  0.0000  2.0000  0.0000  0.0000  0.0000  0.0000  0.0000  0.0000  0.0000  0.0000
      4f1-     0.0000  0.0000  0.0000  2.0000  0.0000  0.0000  0.0000  0.0000  0.0000  0.0000  0.0000  0.0000
      4f2-     0.0000  0.0000  0.0000  2.0000  0.0000  0.0000  0.0000  0.0000  0.0000  0.0000  0.0000  0.0000
      4f3-     0.0000  0.0000  0.0000  2.0000  0.0000  0.0000  0.0000  0.0000  0.0000  0.0000  0.0000  0.0000
      5d2+     0.0000  0.0000  0.0000  1.9999  0.0000  0.0000  0.0000  0.0000  0.0000  0.0000  0.0000  0.0000
      5d1+     0.0000  0.0000  0.0000  1.9998  0.0000  0.0000  0.0000  0.0000  0.0000  0.0000  0.0000  0.0000
      5d0      0.0000  0.0000  0.0000  1.9986  0.0000  0.0000  0.0000  0.0000  0.0000  0.0000  0.0000  0.0000
      5d1-     0.0000  0.0000  0.0000  1.9998  0.0000  0.0000  0.0000  0.0000  0.0000  0.0000  0.0000  0.0000
      5d2-     0.0000  0.0000  0.0000  1.9998  0.0000  0.0000  0.0000  0.0000  0.0000  0.0000  0.0000  0.0000
      6px      0.0000  0.0000  0.0000  1.9621  0.0000  0.0000  0.0000  0.0000  0.0000  0.0000  0.0000  0.0000
      6pz      0.0000  0.0000  0.0000  1.7708  0.0000  0.0000  0.0000  0.0000  0.0000  0.0000  0.0000  0.0000
      6py      0.0000  0.0000  0.0000  1.9813  0.0000  0.0000  0.0000  0.0000  0.0000  0.0000  0.0000  0.0000
      7s       0.0000  0.0000  0.0000  0.1427  0.0000  0.0000  0.0000  0.0000  0.0000  0.0000  0.0000  0.0000
      5f3+     0.0000  0.0000  0.0000  0.0270  0.0000  0.0000  0.0000  0.0000  0.0000  0.0000  0.0000  0.0000
      5f2+     0.0000  0.0000  0.0000  0.0200  0.0000  0.0000  0.0000  0.0000  0.0000  0.0000  0.0000  0.0000
      5f1+     0.0000  0.0000  0.0000  0.3211  0.0000  0.0000  0.0000  0.0000  0.0000  0.0000  0.0000  0.0000
      5f0      0.0000  0.0000  0.0000  0.9749  0.0000  0.0000  0.0000  0.0000  0.0000  0.0000  0.0000  0.0000
      5f1-     0.0000  0.0000  0.0000  0.3197  0.0000  0.0000  0.0000  0.0000  0.0000  0.0000  0.0000  0.0000
      5f2-     0.0000  0.0000  0.0000  0.0456  0.0000  0.0000  0.0000  0.0000  0.0000  0.0000  0.0000  0.0000
      5f3-     0.0000  0.0000  0.0000  0.0877  0.0000  0.0000  0.0000  0.0000  0.0000  0.0000  0.0000  0.0000
      6d2+     0.0000  0.0000  0.0000  0.0834  0.0000  0.0000  0.0000  0.0000  0.0000  0.0000  0.0000  0.0000
      6d1+     0.0000  0.0000  0.0000  0.4685  0.0000  0.0000  0.0000  0.0000  0.0000  0.0000  0.0000  0.0000
      6d0      0.0000  0.0000  0.0000  0.4438  0.0000  0.0000  0.0000  0.0000  0.0000  0.0000  0.0000  0.0000
      6d1-     0.0000  0.0000  0.0000  0.4910  0.0000  0.0000  0.0000  0.0000  0.0000  0.0000  0.0000  0.0000
      6d2-     0.0000  0.0000  0.0000  0.2599  0.0000  0.0000  0.0000  0.0000  0.0000  0.0000  0.0000  0.0000
      7px      0.0000  0.0000  0.0000  0.1313  0.0000  0.0000  0.0000  0.0000  0.0000  0.0000  0.0000  0.0000
      7pz      0.0000  0.0000  0.0000  0.1007  0.0000  0.0000  0.0000  0.0000  0.0000  0.0000  0.0000  0.0000
      7py      0.0000  0.0000  0.0000  0.1051  0.0000  0.0000  0.0000  0.0000  0.0000  0.0000  0.0000  0.0000
      Total    6.5978 15.1011  8.7448 89.7190  8.8833  8.7417  8.5852  8.5984  0.8409  0.7992  0.8407  8.5476
 
      N-E     -0.5978  0.8989 -0.7448  2.2810 -0.8833 -0.7417 -0.5852 -0.5984  0.1591  0.2008  0.1593 -0.5476
 
      Total electronic charge=  166.000000
 
      Total            charge=   -1.000000
--
 
 

      Expectation values of various properties for root number:  9
      -----------------------------------------------------------
 
 
++    Molecular properties:
      ---------------------
 
      Charge (e):
                      =   -1.0000
      Dipole Moment (Debye):
      Origin of the operator (Ang)=    0.0000    0.0000    0.0000
                   X= -7.0199E+00               Y= -2.0064E+00               Z= -6.5577E-01           Total=  7.3304E+00
      Center of Charge (Ang)
                     X=    1.46150891               Y=    0.41772206               Z=    0.13652691
      Quadrupole Moment (Debye*Ang):
      Origin of the operator (Ang)=   -0.4300   -0.0533   -0.0710
                  XX= -1.3250E+02              XY= -6.3708E+00              XZ=  3.9289E+00              YY= -1.0434E+02
                  YZ=  5.6351E-01              ZZ= -1.1402E+02
      In traceless form (Debye*Ang)
                  XX= -2.3316E+01              XY= -9.5562E+00              XZ=  5.8933E+00              YY=  1.8922E+01
                  YZ=  8.4527E-01              ZZ=  4.3946E+00
--
 

      LoProp population analysis for root number:  9
      -----------------------------------------------
 
 
++    LoProp analysis:
      ----------------
 
 
 
  Input file to MOLDEN was generated!
 
 
++    Static properties:
      ------------------
 
 
      LoProp Charges per center
 

                   C1       S2       O3       U4       O5       O6       O7       O8       H9       H10   
      Nuclear      6.0000  16.0000   8.0000  92.0000   8.0000   8.0000   8.0000   8.0000   1.0000   1.0000
      Electronic  -6.4497 -15.0133  -8.8212 -88.6934  -8.9189  -8.8168  -8.9912  -9.0020  -0.8922  -0.8549
 
      Total       -0.4497   0.9867  -0.8212   3.3066  -0.9189  -0.8168  -0.9912  -1.0020   0.1078   0.1451
 

                   H11      O12   
      Nuclear      1.0000   8.0000
      Electronic  -0.8920  -8.6543
 
      Total        0.1080  -0.6543
--
 
 
      Natural Bond Order analysis for root number:  9
 
++    Natural Bond Order analysis
      ---------------------------
      Based on LoProp computed density
      -------------------------------------------------------------------------------------
      Atom A       Atom B       Bond Order | Atom A       Atom B       Bond Order
        C1           S2             1.000  |   U4           O5             3.000
        C1           H9             0.999  |   S2           O3             0.981
        C1           H10            1.000  |   S2           O6             0.981
        C1           H11            0.999  |   O5           O12            1.883
      -------------------------------------------------------------------------------------
      NBO located    109.999 core electrons.
      NBO located     26.958 lone pair electrons.
      NBO located     21.686 electrons involved in    8 bonds.
      The remaining    7.357 electrons are to be considered as diffuse
--
 
--
 
 
  Input file to MOLDEN was generated!
 
 
  Input file to MOLDEN was generated!
 
 
  Input file to MOLDEN was generated!
 
 
  Input file to MOLDEN was generated!
 
 
  Input file to MOLDEN was generated!
 
 
  Input file to MOLDEN was generated!
 
 
  Input file to MOLDEN was generated!
 
 
  Input file to MOLDEN was generated!
 
 
  Input file to MOLDEN was generated!
 
 
  Input file to MOLDEN was generated!
 
      Average orbitals are written to the RASORB file
      Natural orbitals for root   1 are written to the RASORB.1 file
      Natural orbitals for root   2 are written to the RASORB.2 file
      Natural orbitals for root   3 are written to the RASORB.3 file
      Natural orbitals for root   4 are written to the RASORB.4 file
      Natural orbitals for root   5 are written to the RASORB.5 file
      Natural orbitals for root   6 are written to the RASORB.6 file
      Natural orbitals for root   7 are written to the RASORB.7 file
      Natural orbitals for root   8 are written to the RASORB.8 file
      Natural orbitals for root   9 are written to the RASORB.9 file
      Spin density orbitals for root   1 are written to the SPDORB.1 file
      Spin density orbitals for root   2 are written to the SPDORB.2 file
      Spin density orbitals for root   3 are written to the SPDORB.3 file
      Spin density orbitals for root   4 are written to the SPDORB.4 file
      Spin density orbitals for root   5 are written to the SPDORB.5 file
      Spin density orbitals for root   6 are written to the SPDORB.6 file
      Spin density orbitals for root   7 are written to the SPDORB.7 file
      Spin density orbitals for root   8 are written to the SPDORB.8 file
      Spin density orbitals for root   9 are written to the SPDORB.9 file
 
 ###############################################################################
 ###############################################################################
 ###                                                                         ###
 ###                                                                         ###
 ###    RunFile label BirthCertificate                                       ###
 ###    was used       69 times                                              ###
 ###                                                                         ###
 ###                                                                         ###
 ###############################################################################
 ###############################################################################
 ###############################################################################
 ###############################################################################
 ###                                                                         ###
 ###                                                                         ###
 ###    RunFile label Unique Coordinat                                       ###
 ###    was used       47 times                                              ###
 ###                                                                         ###
 ###                                                                         ###
 ###############################################################################
 ###############################################################################
 ###############################################################################
 ###############################################################################
 ###                                                                         ###
 ###                                                                         ###
 ###    RunFile label nBas                                                   ###
 ###    was used       72 times                                              ###
 ###                                                                         ###
 ###                                                                         ###
 ###############################################################################
 ###############################################################################
--- Stop Module: rasscf at Wed Dec  4 10:54:18 2019 /rc=_RC_ALL_IS_WELL_ ---
*** files: UO2_CH3SO2_O2-m1-triplet.casscf.MB.LprOrb UO2_CH3SO2_O2-m1-triplet.casscf.MB.rasscf.molden.9 UO2_CH3SO2_O2-m1-triplet.casscf.MB.rasscf.molden.3
           UO2_CH3SO2_O2-m1-triplet.casscf.MB.rasscf.molden.4 UO2_CH3SO2_O2-m1-triplet.casscf.MB.rasscf.molden.2 UO2_CH3SO2_O2-m1-triplet.casscf.MB.rasscf.molden
           UO2_CH3SO2_O2-m1-triplet.casscf.MB.rasscf.molden.7 UO2_CH3SO2_O2-m1-triplet.casscf.MB.rasscf.molden.8 UO2_CH3SO2_O2-m1-triplet.casscf.MB.rasscf.molden.1
           UO2_CH3SO2_O2-m1-triplet.casscf.MB.rasscf.molden.6 UO2_CH3SO2_O2-m1-triplet.casscf.MB.rasscf.molden.5 UO2_CH3SO2_O2-m1-triplet.casscf.MB.LoProp.molden
           UO2_CH3SO2_O2-m1-triplet.casscf.MB.RasOrb.7 UO2_CH3SO2_O2-m1-triplet.casscf.MB.RasOrb.3 UO2_CH3SO2_O2-m1-triplet.casscf.MB.RasOrb.2
           UO2_CH3SO2_O2-m1-triplet.casscf.MB.RasOrb.8 UO2_CH3SO2_O2-m1-triplet.casscf.MB.RasOrb UO2_CH3SO2_O2-m1-triplet.casscf.MB.RasOrb.5
           UO2_CH3SO2_O2-m1-triplet.casscf.MB.RasOrb.4 UO2_CH3SO2_O2-m1-triplet.casscf.MB.RasOrb.6 UO2_CH3SO2_O2-m1-triplet.casscf.MB.RasOrb.1
           UO2_CH3SO2_O2-m1-triplet.casscf.MB.RasOrb.9 UO2_CH3SO2_O2-m1-triplet.casscf.MB.rasscf.h5 UO2_CH3SO2_O2-m1-triplet.casscf.MB.SpdOrb.5
           UO2_CH3SO2_O2-m1-triplet.casscf.MB.SpdOrb.8 UO2_CH3SO2_O2-m1-triplet.casscf.MB.SpdOrb.9 UO2_CH3SO2_O2-m1-triplet.casscf.MB.SpdOrb.6
           UO2_CH3SO2_O2-m1-triplet.casscf.MB.SpdOrb.4 UO2_CH3SO2_O2-m1-triplet.casscf.MB.SpdOrb.1 UO2_CH3SO2_O2-m1-triplet.casscf.MB.SpdOrb.3
           UO2_CH3SO2_O2-m1-triplet.casscf.MB.SpdOrb.7 UO2_CH3SO2_O2-m1-triplet.casscf.MB.SpdOrb.2 xmldump
    saved to directory /home/vallet/John-sulfinate/U-complexes/UO2_CH3SO2_O2-m1/singlet-geom/optg-freq-pbe0/SO-XMS
--- Module rasscf spent 41 seconds ---

>>> COPY UO2_CH3SO2_O2-m1-triplet.casscf.MB.RasOrb /home/vallet/John-sulfinate/U-complexes/UO2_CH3SO2_O2-m1/singlet-geom/optg-freq-pbe0/SO-XMS/UO2_CH3SO2_O2-m1-triplet.casscf.MB.RasOrb_singlets

>>> COPY UO2_CH3SO2_O2-m1-triplet.casscf.MB.rasscf.molden /home/vallet/John-sulfinate/U-complexes/UO2_CH3SO2_O2-m1/singlet-geom/optg-freq-pbe0/SO-XMS/UO2_CH3SO2_O2-m1-triplet.casscf.MB.rasscf_singlets.molden

    Timing: Wall=274.96 User=1851.44 System=56.95
