   This run of MOLCAS is using the pymolcas driver

                             OPE
                             OPE          NMOL  CASOP  ENMOLC A   SO
                 OPE        NMOLC        AS  OP EN  MO LC     AS  OP
                OPENM       OL CA        SO  PE NM  OL CA     SOP EN
                OP EN      MO   LC       AS  OP ENMOL  CASO   PENMOL
                OP  EN     MO   LC       AS  OP EN     MO     LC ASO
               OP   E  NMOL  C  AS       OP  EN MO     LC     AS  OP
               OP  E   NMO   LC AS        OPEN  MO     LCASOP EN   M
               O  PEN   MO  LCA  SO
            OPE   NMO   L   CAS    OP
        OPENMOL  CASOP     ENMOL   CASOPE
     OPENMOLCA   SOPENMOLCASOPEN   MOLCASOPE
    OPENMOLCAS   OP           EN   MOL    CAS
    OPENMOLCAS       OP  ENM        O     LCA
    OPENMOLCAS    OPEN  MOLCASO     P  E  NMO
    OPENMOLCAS     OP               E  N  MOL
    OPENMOLCA   SO           PENM   O  L  CAS    OPEN    MO    LCAS
    OPENMOLCA   SOP           ENM   O  L  CAS   OP  EN  MOLC  AS   O
    OPENMOLCA   SOPE           NM      O  LCA   S      OP  EN MO
    OPENMOLC                AS         O  PEN   M      OL  CA  SOPE
    OPENMO        LCASOPE  NMOL        C  ASO   P      ENMOLC     AS
    OPE     NMO      LCA  SO     P     E   NM   OL  CA SO  PE N   MO
          OPENMOLCA            SOPE   NMO        LCAS  O    P  ENMO
     OPENMOLCASOPENMOLCASOPENMOLCASOPENMOLCA
        OPENMOLCASOPENMOLCASOPENMOLCASOPE
            OPENMOLCASOPENMOLCASOPENM
               OPENMOLCASOPENMOLCA        version: 18.09
                   OPENMOLCASO
                       OPE                tag: 50-g6d6e5e5-dirty

 OpenMolcas is free software; you can redistribute it and/or modify it
 under the terms of the GNU Lesser General Public License version 2.1.
 OpenMolcas is distributed in the hope that it will be useful, but it
 is provided "as is" and without any express or implied warranties.
 For more details see the full text of the license in the file
 LICENSE or in <http://www.gnu.org/licenses/>.

                 Copyright (C) The OpenMolcas Authors
           For the author list and the recommended citation,
                   consult the file CONTRIBUTORS.md

           *************************************************
           * pymolcas version py2.04                       *
           *   build 3b3f1139d1f9af0cd96dc01c0ce9d5c0      *
           *   (after the EMIL interpreter by V. Veryazov) *
           *************************************************

configuration info
------------------
C Compiler ID: Intel
C flags: -std=gnu99 -qopenmp
Fortran Compiler ID: Intel
Fortran flags: -fpp -i8 -r8 -heap-arrays -qopenmp
Definitions: _MOLCAS_;_I8_;_LINUX_;_MKL_;_FDE_
Parallel: OFF (GA=OFF)


   ---------------------------------------------------------------------------------------------------------
  |
  |           Project: PuO2_CH3SO2_O2-m1-quintet.casscf.MB
  |    Submitted from: /home/vallet/John-methylsulfonyl/PuO2_CH3SO2_O2-m1/quintet-geom/optg-freq-pbe0/SO-XMS
  |      Scratch area: /state/partition2/vallet/497689.phlam-s-sakura/PuO2_CH3SO2_O2-m1-quintet.casscf.MB
  |   Save outputs to: /home/vallet/John-methylsulfonyl/PuO2_CH3SO2_O2-m1/quintet-geom/optg-freq-pbe0/SO-XMS
  |            Molcas: /home/pcmt/OpenMolcas/OpenMolcas-20181005
  |
  | Scratch area is empty
  |
  |    MOLCAS_DRIVER = /home/pcmt/OpenMolcas/OpenMolcas-20181005/sbin/pymolcas
  |   MOLCAS_LICENSE = /home/pcmt/molcas/license
  |    MOLCAS_MOLDEN = ON
  |    MOLCAS_NPROCS = 1
  |    MOLCAS_SOURCE = /home/pcmt/OpenMolcas/OpenMolcas-20181005
  | MOLCAS_STRUCTURE = 0
  |
   ---------------------------------------------------------------------------------------------------------

++ ---------   Input file   ---------

&GATEWAY
   COORD=$HomeDir/PuO2_CH3SO2_O2-m1-quintet.pbe0.optg-zaxis.xyz
   BASIS=ANO-RCC-MB
   Group=Nosym
   ANGM=0.0 0.0 0.0
   RICD

>>> COPY $Project.RunFile $HomeDir

&SEWARD

&RASSCF
   Spin=5
   Symmetry=1
   Nactel=6 0 0
   Inactive=81
   Ras2=6
   CIRoots=8 8 1
   Lumorb

>>> COPY $Project.RasOrb INPORB

&RASSCF
   Spin=5
   Symmetry=1
   Nactel=6 0 0
   Inactive=81
   Ras2=6
   CIRoots=8 8 1
   ALTER=1
 1 80 83

   Lumorb

>>> COPY $Project.RasOrb $HomeDir/$Project.RasOrb_quintets

>>> COPY $Project.rasscf.molden $HomeDir/$Project.rasscf_quintets.molden

>>> COPY $Project.RasOrb INPORB

&RASSCF
   Spin=3
   Symmetry=1
   Nactel=6 0 0
   Inactive=81
   Ras2=6
   CIRoots=16 16 1
   Lumorb

>>> COPY $Project.RasOrb $HomeDir/$Project.RasOrb_triplets

>>> COPY $Project.rasscf.molden $HomeDir/$Project.rasscf_triplets.molden

>>> COPY $Project.RasOrb INPORB

&RASSCF
   Spin=1
   Symmetry=1
   Nactel=6 0 0
   Inactive=81
   Ras2=6
   CIRoots=16 16 1

>>> COPY $Project.RasOrb $HomeDir/$Project.RasOrb_singlets

>>> COPY $Project.rasscf.molden $HomeDir/$Project.rasscf_singlets.molden

-- ----------------------------------

--- Start Module: gateway at Tue Nov 13 21:01:43 2018 ---
 
()()()()()()()()()()()()()()()()()()()()()()()()()()()()()()()()()()()()()()()()()()()()()()()()()()

                                              &GATEWAY

                                   only a single process is used
                       available to each process: 16 GB of memory, 8 threads
()()()()()()()()()()()()()()()()()()()()()()()()()()()()()()()()()()()()()()()()()()()()()()()()()()
 
 
++    Symmetry information:
      ---------------------
 
                    Character Table for C1 
 
                             E  
                    a        1  x, y, xy, Rz, z, xz, Ry, yz, Rx, I
--
 
 
++    Basis set information:
      ----------------------
 
 
      Basis set label: C.ANO-RCC...2S1P.
 
      Electronic valence basis set:
      ------------------
      Associated Effective Charge   6.000000 au
      Associated Actual Charge      6.000000 au
      Nuclear Model: Point charge
 
      Shell  nPrim  nBasis  Cartesian Spherical Contaminant
         s      14       2        X                  
         p       9       1        X                  
 
 
      Basis set label: S.ANO-RCC...3S2P.
 
      Electronic valence basis set:
      ------------------
      Associated Effective Charge  16.000000 au
      Associated Actual Charge     16.000000 au
      Nuclear Model: Point charge
 
      Shell  nPrim  nBasis  Cartesian Spherical Contaminant
         s      17       3        X                  
         p      12       2        X                  
 
 
      Basis set label: O.ANO-RCC...2S1P.
 
      Electronic valence basis set:
      ------------------
      Associated Effective Charge   8.000000 au
      Associated Actual Charge      8.000000 au
      Nuclear Model: Point charge
 
      Shell  nPrim  nBasis  Cartesian Spherical Contaminant
         s      14       2        X                  
         p       9       1        X                  
 
 
      Basis set label: PU.ANO-RCC...7S6P4D2F.
 
      Electronic valence basis set:
      ------------------
      Associated Effective Charge  94.000000 au
      Associated Actual Charge     94.000000 au
      Nuclear Model: Point charge
 
      Shell  nPrim  nBasis  Cartesian Spherical Contaminant
         s      26       7        X                  
         p      23       6        X                  
         d      17       4                 X         
         f      13       2                 X         
 
 
      Basis set label: O.ANO-RCC...2S1P.
 
      Electronic valence basis set:
      ------------------
      Associated Effective Charge   8.000000 au
      Associated Actual Charge      8.000000 au
      Nuclear Model: Point charge
 
      Shell  nPrim  nBasis  Cartesian Spherical Contaminant
         s      14       2        X                  
         p       9       1        X                  
 
 
      Basis set label: H.ANO-RCC...1S.
 
      Electronic valence basis set:
      ------------------
      Associated Effective Charge   1.000000 au
      Associated Actual Charge      1.000000 au
      Nuclear Model: Point charge
 
      Shell  nPrim  nBasis  Cartesian Spherical Contaminant
         s       8       1        X                  
 
 
      Basis set label: O.ANO-RCC...2S1P.
 
      Electronic valence basis set:
      ------------------
      Associated Effective Charge   8.000000 au
      Associated Actual Charge      8.000000 au
      Nuclear Model: Point charge
 
      Shell  nPrim  nBasis  Cartesian Spherical Contaminant
         s      14       2        X                  
         p       9       1        X                  
--
 
 
++    Molecular structure info:
      -------------------------
 
                    ************************************************ 
                    **** Cartesian Coordinates / Bohr, Angstrom **** 
                    ************************************************ 
 
     Center  Label                x              y              z                     x              y              z
        1      C1              -5.258654       3.725217      -3.801505             -2.782760       1.971300      -2.011670
        2      S2              -4.786960       3.379662      -0.417289             -2.533150       1.788440      -0.220820
        3      O3              -4.746765       0.499152      -0.132319             -2.511880       0.264140      -0.070020
        4      PU4              0.000000       0.000000       0.000000              0.000000       0.000000       0.000000
        5      O5               4.277452      -1.506981       0.023640              2.263530      -0.797460       0.012510
        6      O6              -2.059669       4.304248      -0.120697             -1.089930       2.277710      -0.063870
        7      O7               0.000000       0.000000       3.325257              0.000000       0.000000       1.759650
        8      O8               0.038607      -0.027439      -3.337445              0.020430      -0.014520      -1.766100
        9      H9              -5.156061       5.729933      -4.268173             -2.728470       3.032150      -2.258620
       10      H10             -3.746363       2.662870      -4.714356             -1.982490       1.409130      -2.494730
       11      H11             -7.110472       2.958045      -4.280324             -3.762700       1.565330      -2.265050
       12      O12              2.856888      -3.521769       0.022318              1.511800      -1.863640       0.011810
 
                    *************************************** 
                    *    InterNuclear Distances / Bohr    * 
                    *************************************** 
 
               1 C1            2 S2            3 O3            4 PU4           5 O5            6 O6    
    1 C1       0.000000
    2 S2       3.434359        0.000000
    3 O3       4.912480        2.894850        0.000000
    4 PU4      7.482121        5.874626        4.774771        0.000000
    5 O5      11.530176       10.307146        9.245831        4.535212        0.000000
    6 O6       4.910920        2.894985        4.658259        4.773191        8.599437        0.000000
    7 O7       9.608404        6.952967        5.893705        3.325257        5.609657        5.885863
    8 O8       6.508360        6.589518        5.783591        3.337781        5.608364        5.789106
    9 H9       2.060871        4.526513        6.680860        8.811039       12.640560        5.368592
   10 H10      2.061287        4.478997        5.165031        6.584168       10.208716        5.161470
   11 H11      2.060838        4.527639        5.370216        8.810790       12.967089        6.680223
   12 O12     11.532669       10.307833        8.602747        4.534883        2.465233        9.243351
 
               7 O7            8 O8            9 H9           10 H10          11 H11          12 O12   
    7 O7       0.000000
    8 O8       6.662870        0.000000
    9 H9      10.820225        7.810132        0.000000
   10 H10      9.260750        4.843516        3.404880        0.000000
   11 H11     10.823757        7.804580        3.391642        3.404812        0.000000
   12 O12      5.610176        5.607233       12.969567       10.212187       12.643140        0.000000
 
                    ******************************************* 
                    *    InterNuclear Distances / Angstrom    * 
                    ******************************************* 
 
               1 C1            2 S2            3 O3            4 PU4           5 O5            6 O6    
    1 C1       0.000000
    2 S2       1.817385        0.000000
    3 O3       2.599572        1.531889        0.000000
    4 PU4      3.959368        3.108718        2.526700        0.000000
    5 O5       6.101506        5.454307        4.892683        2.399931        0.000000
    6 O6       2.598747        1.531960        2.465044        2.525864        4.550626        0.000000
    7 O7       5.084548        3.679352        3.118814        1.759650        2.968503        3.114665
    8 O8       3.444076        3.487022        3.060545        1.766278        2.967818        3.063463
    9 H9       1.090566        2.395327        3.535359        4.662601        6.689096        2.840937
   10 H10      1.090786        2.370183        2.733217        3.484192        5.402220        2.731332
   11 H11      1.090548        2.395923        2.841796        4.662469        6.861888        3.535022
   12 O12      6.102826        5.454670        4.552378        2.399757        1.304545        4.891371
 
               7 O7            8 O8            9 H9           10 H10          11 H11          12 O12   
    7 O7       0.000000
    8 O8       3.525839        0.000000
    9 H9       5.725817        4.132944        0.000000
   10 H10      4.900578        2.563078        1.801785        0.000000
   11 H11      5.727685        4.130006        1.794780        1.801749        0.000000
   12 O12      2.968777        2.967220        6.863199        5.404057        6.690462        0.000000
 
                    ************************************** 
                    *    Valence Bond Angles / Degree    * 
                    ************************************** 
                          Atom centers                 Phi
                      9 H9       1 C1      10 H10      111.38
                      9 H9       1 C1      11 H11      110.75
                     10 H10      1 C1      11 H11      111.38
                      3 O3       2 S2       6 O6       107.14
--
 
 
            Nuclear Potential Energy           1890.80184869 au
 
--- Stop Module: gateway at Tue Nov 13 21:02:53 2018 /rc=_RC_ALL_IS_WELL_ ---
*** files: PuO2_CH3SO2_O2-m1-quintet.casscf.MB.RICDLib xmldump
    saved to directory /home/vallet/John-methylsulfonyl/PuO2_CH3SO2_O2-m1/quintet-geom/optg-freq-pbe0/SO-XMS
--- Module gateway spent 1 minute 9 seconds ---

>>> COPY PuO2_CH3SO2_O2-m1-quintet.casscf.MB.RunFile /home/vallet/John-methylsulfonyl/PuO2_CH3SO2_O2-m1/quintet-geom/optg-freq-pbe0/SO-XMS

--- Start Module: seward at Tue Nov 13 21:02:53 2018 ---
 
()()()()()()()()()()()()()()()()()()()()()()()()()()()()()()()()()()()()()()()()()()()()()()()()()()

                                              &SEWARD

                                   only a single process is used
                       available to each process: 16 GB of memory, 8 threads
()()()()()()()()()()()()()()()()()()()()()()()()()()()()()()()()()()()()()()()()()()()()()()()()()()
 
               SEWARD will generate:
                  Multipole Moment integrals up to order  2
                  Kinetic Energy integrals
                  Nuclear Attraction integrals (point charge)
                  One-Electron Hamiltonian integrals
                  Velocity integrals
                  Relativistic Douglas-Kroll-Hess integrals:
                    - Parametrization         : EXP
                    - DKH order of Hamiltonian: 2
                    - DKH order of Properties : 0
                         - multipole moment operators
                         - electric potential operators
                         - contact operators
                  Orbital angular momentum around ( 0.0000  0.0000  0.0000 )
                  Atomic mean-field integrals
                  RI decomposed two-electron repulsion integrals stored Cholesky style
                   - acCD auxiliary basis
                   - CD Threshold:   0.10E-03
 
                   Integrals are discarded if absolute value <: 0.10E-13
                   Integral cutoff threshold is set to       <: 0.10E-15
 
            Nuclear Potential Energy           1890.80184869 au
 
 
      Basis set specifications :
      Symmetry species         a  
      Basis functions          106
 
 
  Input file to MOLDEN was generated!
 
--- Stop Module: seward at Tue Nov 13 21:03:09 2018 /rc=_RC_ALL_IS_WELL_ ---
*** files: PuO2_CH3SO2_O2-m1-quintet.casscf.MB.GssOrb PuO2_CH3SO2_O2-m1-quintet.casscf.MB.guessorb.h5 PuO2_CH3SO2_O2-m1-quintet.casscf.MB.guessorb.molden xmldump
    saved to directory /home/vallet/John-methylsulfonyl/PuO2_CH3SO2_O2-m1/quintet-geom/optg-freq-pbe0/SO-XMS
--- Module seward spent 16 seconds ---

*** symbolic link created: INPORB -> PuO2_CH3SO2_O2-m1-quintet.casscf.MB.GssOrb
--- Start Module: rasscf at Tue Nov 13 21:03:09 2018 ---
 
()()()()()()()()()()()()()()()()()()()()()()()()()()()()()()()()()()()()()()()()()()()()()()()()()()

                                              &RASSCF

                                   only a single process is used
                       available to each process: 16 GB of memory, 8 threads
()()()()()()()()()()()()()()()()()()()()()()()()()()()()()()()()()()()()()()()()()()()()()()()()()()
 
 
      Header of the ONEINT file:
      --------------------------
      
      Integrals generated by seward 4.2.0  , Tue Nov 13 21:02:53 2018
 
 
      OrdInt status: non-squared
 
 
      Cartesian coordinates in Angstrom:
      -----------------------------------------------------
      No.  Label        X            Y            Z        
      -----------------------------------------------------
       1   C1        -2.78276000   1.97130000  -2.01167000
       2   S2        -2.53315000   1.78844000  -0.22082000
       3   O3        -2.51188000   0.26414000  -0.07002000
       4   PU4        0.00000000   0.00000000   0.00000000
       5   O5         2.26353000  -0.79746000   0.01251000
       6   O6        -1.08993000   2.27771000  -0.06387000
       7   O7         0.00000000   0.00000000   1.75965000
       8   O8         0.02043000  -0.01452000  -1.76610000
       9   H9        -2.72847000   3.03215000  -2.25862000
      10   H10       -1.98249000   1.40913000  -2.49473000
      11   H11       -3.76270000   1.56533000  -2.26505000
      12   O12        1.51180000  -1.86364000   0.01181000
      -----------------------------------------------------
      Nuclear repulsion energy = 1890.80184869
 
++    Wave function specifications:
      -----------------------------
 
      Number of closed shell electrons         162
      Number of electrons in active shells       6
      Max number of holes in RAS1 space          0
      Max nr of electrons in RAS3 space          0
      Number of inactive orbitals               81
      Number of active orbitals                  6
      Number of secondary orbitals              19
      Spin quantum number                      2.0
      State symmetry                             1
--
 
++    Orbital specifications:
      -----------------------
 
      Symmetry species                           1
                                                 a
      Frozen orbitals                            0
      Inactive orbitals                         81
      Active orbitals                            6
      RAS1 orbitals                              0
      RAS2 orbitals                              6
      RAS3 orbitals                              0
      Secondary orbitals                        19
      Deleted orbitals                           0
      Number of basis functions                106
--
 
++    CI expansion specifications:
      ----------------------------
 
      Number of CSFs                            35
      Number of determinants                    36
      Number of root(s) required                 8
      Root chosen for geometry opt.              8
      CI roots used                              1     2     3     4     5     6     7     8
      weights                                0.125 0.125 0.125 0.125 0.125 0.125 0.125 0.125
      highest root included in the CI            8
      max. size of the explicit Hamiltonian     35
--
 
++    Optimization specifications:
      ----------------------------
 
      RASSCF algorithm: LK RI/DF
      Maximum number of macro iterations       200
      Maximum number of SX iterations          100
      Threshold for RASSCF energy            0.100E-07
      Threshold for max MO rotation          0.100E+00
      Threshold for max BLB element          0.100E-03
      Level shift parameter                  0.500E+00
      Make Quasi-Newton update
--
 
      The MO-coefficients are taken from the file:
      INPORB                                                                                                                          
      Title:Guess orbitals                                                                 
 
      Total molecular charge   -1.00
 
      ************************************************************************************************************************
      *                                                                                                                      *
      *                                            Wave function control section                                             *
      *                                                                                                                      *
      ************************************************************************************************************************
 
 
                                         RASSCF iterations: Energy and convergence statistics
                                         ----------------------------------------------------
 
      Iter CI   SX   CI       RASSCF       Energy    max ROT     max BLB   max BLB  Level Ln srch  Step   QN   Walltime
          iter iter root      energy       change     param      element    value   shift minimum  type update hh:mm:ss
 Nr of preliminary CI iterations:   1
      Total energies have been shifted. Add               -30000.00 au
        1   1   92    0  -424.04854372    0.00E+00   0.95E-01   63  89 1  0.41E+00*  1.74   0.00    SX    NO    0:00:02
        2   1  100    0  -424.84037272   -0.79E+00*  0.18E+00*  63  89 1  0.27E+00*  1.40   0.00    SX    NO    0:00:01
        3   1  100    0  -425.29376944   -0.45E+00*  0.26E+00*  84  89 1  0.23E+00*  1.10   0.00    SX    NO    0:00:01
        4   1  100    0  -425.65505632   -0.36E+00*  0.25E+00*  84  89 1  0.36E+00*  0.83   0.00    SX    NO    0:00:01
        5   1  100    0  -425.92268695   -0.27E+00*  0.34E+00*  84  89 1  0.33E+00*  0.65   2.50    QN   YES    0:00:01
        6   1   76    0  -426.15272763   -0.23E+00*  0.23E+00*  84  89 1  0.15E+00*  0.37   2.50    LS   YES    0:00:01
        7   1   11    0  -426.19502025   -0.42E-01* -0.40E-01   68 102 1  0.62E-01*  0.32   0.93    QN   YES    0:00:00
        8   1   23    0  -426.22890194   -0.34E-01*  0.71E-01   68 102 1  0.34E-01*  0.31   1.92    QN   YES    0:00:00
        9   1   19    0  -426.24980937   -0.21E-01*  0.10E+00   79  84 1 -0.19E-01*  0.33   1.63    QN   YES    0:00:00
       10   1   20    0  -426.26009299   -0.10E-01*  0.22E+00*  79  84 1 -0.23E-01*  0.34   2.50    QN   YES    0:00:01
       11   1    9    0  -426.27891744   -0.19E-01*  0.28E+00*  81  84 1 -0.30E-01*  0.35   2.34    QN   YES    0:00:01
       12   1    9    0  -426.29513201   -0.16E-01*  0.75E-01   80  96 1 -0.39E-01*  0.37   1.07    QN   YES    0:00:01
       13   1    9    0  -426.30288346   -0.78E-02* -0.11E+00*  80  93 1 -0.37E-01*  0.37   2.50    QN   YES    0:00:01
       14   1    8    0  -426.32246177   -0.20E-01* -0.43E-01   80  96 1 -0.19E-01*  0.35   1.48    LS   YES    0:00:01
       15   1    8    0  -426.32477226   -0.23E-02* -0.18E-01   72  93 1  0.12E-01*  0.34   1.19    QN   YES    0:00:01
       16   1    8    0  -426.32704366   -0.23E-02* -0.20E-01   61  91 1  0.58E-02*  0.34   1.60    QN   YES    0:00:01
       17   1    7    0  -426.32793728   -0.89E-03* -0.80E-02   73  97 1  0.28E-02*  0.34   1.15    QN   YES    0:00:01
       18   1    7    0  -426.32806481   -0.13E-03* -0.94E-02   78  90 1  0.26E-02*  0.34   1.60    QN   YES    0:00:01
       19   1    7    0  -426.32813327   -0.68E-04* -0.56E-02   78  90 1  0.12E-02*  0.34   1.42    QN   YES    0:00:01
       20   1    7    0  -426.32815862   -0.25E-04*  0.47E-02   78  90 1  0.12E-02*  0.34   1.56    QN   YES    0:00:01
       21   1    6    0  -426.32817198   -0.13E-04*  0.25E-02   83  89 1  0.54E-03*  0.34   1.51    QN   YES    0:00:01
       22   1    6    0  -426.32817853   -0.65E-05* -0.23E-02   83  89 1  0.48E-03*  0.34   1.59    QN   YES    0:00:01
       23   1    6    0  -426.32818280   -0.43E-05* -0.37E-02   83  89 1  0.42E-03*  0.34   1.92    QN   YES    0:00:01
       24   1    6    0  -426.32818757   -0.48E-05* -0.75E-02   78  90 1 -0.42E-03*  0.34   2.17    QN   YES    0:00:01
       25   1    7    0  -426.32819507   -0.75E-05* -0.17E-01   78  90 1 -0.61E-03*  0.34   2.45    QN   YES    0:00:01
       26   1    7    0  -426.32821003   -0.15E-04* -0.49E-01   76  93 1  0.89E-03*  0.34   2.50    QN   YES    0:00:01
       27   1    7    0  -426.32825238   -0.42E-04* -0.20E+00*  76  93 1  0.17E-02*  0.34   2.50    QN   YES    0:00:01
       28   1    8    0  -426.32841136   -0.16E-03* -0.22E+00*  79  92 1  0.49E-02*  0.34   1.27    QN   YES    0:00:01
       29   1    9    0  -426.32838205    0.29E-04* -0.36E-01   79  92 1  0.83E-02*  0.33   0.46    QN   YES    0:00:01
       30   1    8    0  -426.32862969   -0.25E-03*  0.41E-01   79  92 1  0.76E-02*  0.33   2.50    QN   YES    0:00:01
       31   1    8    0  -426.32977138   -0.11E-02*  0.30E+00*  87  89 1 -0.73E-02*  0.33   2.50    QN   YES    0:00:01
       32   1    8    0  -426.33283042   -0.31E-02*  0.41E+00*  42  89 1  0.19E-01*  0.33   2.50    QN   YES    0:00:01
       33   1   10    0  -426.33397636   -0.11E-02*  0.93E-01   42  89 1  0.53E-01*  0.34   0.69    QN   YES    0:00:01
       34   1    8    0  -426.33615959   -0.22E-02* -0.49E-01   42  89 1  0.36E-01*  0.34   1.58    QN   YES    0:00:00
       35   1    8    0  -426.33751620   -0.14E-02*  0.58E-01   42  89 1  0.29E-01*  0.34   2.31    QN   YES    0:00:00
       36   1    8    0  -426.33938245   -0.19E-02*  0.77E-01   40  88 1 -0.28E-01*  0.34   2.21    QN   YES    0:00:00
       37   1    8    0  -426.34165299   -0.23E-02*  0.11E+00*  40  88 1 -0.26E-01*  0.34   2.15    QN   YES    0:00:00
       38   1    8    0  -426.34369259   -0.20E-02*  0.88E-01   40  88 1 -0.18E-01*  0.35   2.02    LS   YES    0:00:00
       39   1    9    0  -426.34434022   -0.65E-03*  0.26E-01   40  88 1 -0.13E-01*  0.35   1.21    QN   YES    0:00:01
       40   1    8    0  -426.34514805   -0.81E-03*  0.64E-01   59  89 1 -0.66E-02*  0.35   1.37    QN   YES    0:00:01
       41   1    8    0  -426.34576280   -0.61E-03* -0.10E-01   42  89 1 -0.64E-02*  0.35   1.20    QN   YES    0:00:01
       42   1    8    0  -426.34597089   -0.21E-03* -0.14E-01   42  89 1 -0.48E-02*  0.35   2.50    LS   YES    0:00:01
       43   1    8    0  -426.34608236   -0.11E-03*  0.15E-01   40  88 1  0.52E-02*  0.35   1.03    QN   YES    0:00:01
       44   1    8    0  -426.34624958   -0.17E-03*  0.21E-01   40  87 1  0.29E-02*  0.35   2.50    LS   YES    0:00:01
       45   1    8    0  -426.34636259   -0.11E-03* -0.90E-02   73  89 1 -0.28E-02*  0.35   1.30    QN   YES    0:00:01
       46   1    8    0  -426.34644731   -0.85E-04* -0.13E-01   85  88 1  0.20E-02*  0.35   2.50    LS   YES    0:00:01
       47   1    8    0  -426.34649395   -0.47E-04* -0.74E-02   40  87 1 -0.24E-02*  0.35   1.05    QN   YES    0:00:01
       48   1    7    0  -426.34654571   -0.52E-04* -0.84E-02   85  88 1  0.13E-02*  0.35   2.17    LS   YES    0:00:01
       49   1    7    0  -426.34656563   -0.20E-04*  0.27E-02   69  97 1 -0.11E-02*  0.35   0.98    QN   YES    0:00:01
       50   1    7    0  -426.34658460   -0.19E-04*  0.41E-02   69  97 1 -0.70E-03*  0.35   2.50    LS   YES    0:00:01
       51   1    7    0  -426.34659550   -0.11E-04*  0.32E-02   78  90 1 -0.12E-02*  0.35   1.03    QN   YES    0:00:01
       52   1    7    0  -426.34660629   -0.11E-04*  0.48E-02   85  89 1 -0.62E-03*  0.35   1.92    QN   YES    0:00:01
       53   1    7    0  -426.34661693   -0.11E-04*  0.44E-02   42  89 1 -0.10E-02*  0.35   1.71    QN   YES    0:00:01
       54   1    7    0  -426.34662510   -0.82E-05* -0.43E-02   42  89 1 -0.14E-02*  0.35   1.87    QN   YES    0:00:01
       55   1    7    0  -426.34663213   -0.70E-05* -0.33E-02   42  89 1 -0.12E-02*  0.35   1.71    QN   YES    0:00:01
       56   1    7    0  -426.34663677   -0.46E-05*  0.21E-02   42  89 1 -0.58E-03*  0.35   1.64    QN   YES    0:00:01
       57   1    6    0  -426.34663932   -0.26E-05*  0.16E-02   59  89 1 -0.24E-03*  0.35   1.51    QN   YES    0:00:01
       58   1    6    0  -426.34664044   -0.11E-05*  0.17E-02   84  88 1 -0.23E-03*  0.35   2.07    LS   YES    0:00:01
       59   1    6    0  -426.34664049   -0.49E-07*  0.58E-03   42  89 1  0.24E-03*  0.35   0.54    QN   YES    0:00:01
       60   1    6    0  -426.34664104   -0.55E-06*  0.37E-03   84  88 1 -0.18E-03*  0.35   1.82    QN   YES    0:00:01
       61   1    5    0  -426.34664143   -0.39E-06* -0.56E-03   84  88 1 -0.10E-03*  0.35   1.45    QN   YES    0:00:01
       62   1    6    0  -426.34664167   -0.23E-06* -0.58E-03   42  89 1 -0.67E-04   0.35   1.27    QN   YES    0:00:01
       63   1    5    0  -426.34664175   -0.86E-07* -0.87E-03   69  97 1  0.51E-04   0.35   2.50    LS   YES    0:00:01
       64   1    6    0  -426.34664171    0.37E-07* -0.41E-03   42  89 1  0.82E-04   0.35   0.33    LS   YES    0:00:01
       65   1    5    0  -426.34664177   -0.55E-07*  0.20E-03   84  90 1 -0.60E-04   0.35   1.13    QN   YES    0:00:01
       66   1    5    0  -426.34664181   -0.42E-07*  0.30E-03   84  90 1 -0.40E-04   0.35   2.50    LS   YES    0:00:01
       67   1    5    0  -426.34664183   -0.17E-07* -0.32E-03   40  89 1  0.79E-04   0.35   0.83    QN   YES    0:00:01
       68   1    5    0  -426.34664187   -0.43E-07* -0.70E-03   40  89 1  0.41E-04   0.35   1.24    QN   YES    0:00:01
       69   1    5    0  -426.34664190   -0.31E-07* -0.10E-02   40  89 1 -0.37E-04   0.35   2.50    LS   YES    0:00:01
       70   1    6    0  -426.34664187    0.35E-07* -0.58E-03   40  89 1 -0.15E-03*  0.35   0.21    LS   YES    0:00:01
       71   1    5    0  -426.34664192   -0.54E-07*  0.19E-03   40  89 1 -0.89E-04   0.35   1.10    QN   YES    0:00:01
       72   1    5    0  -426.34664194   -0.18E-07* -0.11E-03   40  89 1 -0.31E-04   0.35   1.40    QN   YES    0:00:01
       73   1    5    0  -426.34664193    0.77E-08  -0.11E-03   40  89 1  0.20E-04   0.35   0.18    QN   YES    0:00:01
      Convergence after 73 iterations
       74   1    5    0  -426.34664194   -0.13E-07* -0.11E-03   40  89 1  0.23E-04   0.35   0.18    QN   YES    0:00:01
 
      ************************************************************************************************************************
                                                      Wave function printout:
                       occupation of active orbitals, and spin coupling of open shells (u,d: Spin up or down)
      ************************************************************************************************************************
 
      Note: transformation to natural orbitals
      has been made, which may change the order of the CSFs.
 
      printout of CI-coefficients larger than  0.05 for root  1
      energy=  -30426.422306
      conf/sym  111111     Coeff  Weight
             8  uu2u0u   0.99897 0.99794
 
      printout of CI-coefficients larger than  0.05 for root  2
      energy=  -30426.409766
      conf/sym  111111     Coeff  Weight
             7  uu2uu0   0.99943 0.99887
 
      printout of CI-coefficients larger than  0.05 for root  3
      energy=  -30426.387638
      conf/sym  111111     Coeff  Weight
            11  u20uuu   0.09647 0.00931
            16  u02uuu  -0.99489 0.98981
 
      printout of CI-coefficients larger than  0.05 for root  4
      energy=  -30426.375509
      conf/sym  111111     Coeff  Weight
             9  uu20uu   0.66852 0.44692
            10  2u0uuu  -0.07827 0.00613
            17  0u2uuu  -0.73692 0.54305
            27  uu02uu  -0.06167 0.00380
 
      printout of CI-coefficients larger than  0.05 for root  5
      energy=  -30426.345083
      conf/sym  111111     Coeff  Weight
             3  2uu0uu   0.57641 0.33225
            13  uduuuu   0.30611 0.09370
            15  uuduuu  -0.17241 0.02972
            21  uuuduu  -0.43088 0.18566
            22  uuuudu  -0.24721 0.06111
            24  uuuuud   0.20237 0.04095
            33  0uu2uu  -0.50619 0.25623
 
      printout of CI-coefficients larger than  0.05 for root  6
      energy=  -30426.283732
      conf/sym  111111     Coeff  Weight
             2  2uuu0u   0.68081 0.46350
             4  u2uuu0   0.40358 0.16288
            20  uuu20u   0.50628 0.25632
            23  uuu02u  -0.18334 0.03361
            32  u0uuu2   0.20050 0.04020
            34  0uuu2u   0.20825 0.04337
 
      printout of CI-coefficients larger than  0.05 for root  7
      energy=  -30426.282714
      conf/sym  111111     Coeff  Weight
             1  2uuuu0   0.41848 0.17513
             5  u2uu0u  -0.77930 0.60731
            18  uuu2u0   0.31298 0.09796
            26  uuu0u2   0.16337 0.02669
            31  u0uu2u   0.24096 0.05806
            35  0uuuu2  -0.18562 0.03445
 
      printout of CI-coefficients larger than  0.05 for root  8
      energy=  -30426.266387
      conf/sym  111111     Coeff  Weight
             2  2uuu0u   0.36062 0.13004
             4  u2uuu0  -0.87064 0.75801
            20  uuu20u   0.26626 0.07089
            32  u0uuu2  -0.19832 0.03933
 
      Natural orbitals and occupation numbers for root  1
      sym 1:   1.000165   0.999984   1.998379   1.000000   0.001637   0.999835
 
      Natural orbitals and occupation numbers for root  2
      sym 1:   1.000228   1.000000   1.998114   1.000000   0.999772   0.001886
 
      Natural orbitals and occupation numbers for root  3
      sym 1:   1.000024   0.019316   1.980684   0.999976   1.000000   1.000000
 
      Natural orbitals and occupation numbers for root  4
      sym 1:   0.019909   0.999996   1.980047   1.000048   1.000020   0.999980
 
      Natural orbitals and occupation numbers for root  5
      sym 1:   1.077447   0.999617   1.000383   0.922553   1.000000   1.000000
 
      Natural orbitals and occupation numbers for root  6
      sym 1:   1.643418   1.122823   0.999962   0.999416   0.357167   0.877215
 
      Natural orbitals and occupation numbers for root  7
      sym 1:   1.212446   1.549700   0.999941   0.999503   0.450361   0.788049
 
      Natural orbitals and occupation numbers for root  8
      sym 1:   1.199462   1.718816   1.000000   0.999989   0.800548   0.281185
 
      ************************************************************************************************************************
      *                                                                                                                      *
      *                                                    Final results                                                     *
      *                                                                                                                      *
      ************************************************************************************************************************
 
 
++    Wave function specifications:
      -----------------------------
 
      Number of closed shell electrons         162
      Number of electrons in active shells       6
      Max number of holes in RAS1 space          0
      Max nr of electrons in RAS3 space          0
      Number of inactive orbitals               81
      Number of active orbitals                  6
      Number of secondary orbitals              19
      Spin quantum number                      2.0
      State symmetry                             1
--
 
++    Orbital specifications:
      -----------------------
 
      Symmetry species                           1
                                                 a
      Frozen orbitals                            0
      Inactive orbitals                         81
      Active orbitals                            6
      RAS1 orbitals                              0
      RAS2 orbitals                              6
      RAS3 orbitals                              0
      Secondary orbitals                        19
      Deleted orbitals                           0
      Number of basis functions                106
--
 
++    CI expansion specifications:
      ----------------------------
 
      Number of CSFs                            35
      Number of determinants                    36
      Number of root(s) required                 8
      CI roots used                              1     2     3     4     5     6     7     8
      weights                                0.125 0.125 0.125 0.125 0.125 0.125 0.125 0.125
      highest root included in the CI            8
      Root passed to geometry opt.               8
--
 
++    Final optimization conditions:
      ------------------------------
 
      Average CI energy                          -30426.34664194
      RASSCF energy for state  8                 -30426.26638723
      Super-CI energy                                -0.00000000
      RASSCF energy change                           -0.00000001
      Max change in MO coefficients              -0.136E-03
      Max non-diagonal density matrix element    -0.107E-03
      Maximum BLB matrix element                  0.229E-04
      (orbital pair  40,  89 in symmetry   1)
      Norm of electronic gradient            0.121E+00
--
 
 
      Final state energy(ies):
      ------------------------
 
::    RASSCF root number  1 Total energy: -30426.42230588
::    RASSCF root number  2 Total energy: -30426.40976642
::    RASSCF root number  3 Total energy: -30426.38763817
::    RASSCF root number  4 Total energy: -30426.37550924
::    RASSCF root number  5 Total energy: -30426.34508294
::    RASSCF root number  6 Total energy: -30426.28373155
::    RASSCF root number  7 Total energy: -30426.28271409
::    RASSCF root number  8 Total energy: -30426.26638723
 
++    Molecular orbitals:
      -------------------
 
      Pseudonatural active orbitals and approximate occupation numbers
 
 
 
 
      Molecular orbitals for symmetry species 1: a  
 
 
      Orbital                1         2         3         4         5         6         7         8         9        10
      Energy        -4488.4149 -854.1468 -711.8573 -711.8552 -711.8544 -220.5123 -180.4905 -180.4868 -180.4840 -143.7508
      Occ. No.          2.0000    2.0000    2.0000    2.0000    2.0000    2.0000    2.0000    2.0000    2.0000    2.0000
 
    1 C1     1s        -0.0000   -0.0000    0.0000    0.0000   -0.0000   -0.0000    0.0000    0.0000   -0.0000   -0.0000
    2 C1     2s        -0.0000   -0.0000    0.0000   -0.0000   -0.0000   -0.0000    0.0000   -0.0000   -0.0000   -0.0000
    3 C1     2px       -0.0000   -0.0000   -0.0000   -0.0000    0.0000   -0.0000   -0.0000   -0.0000    0.0000    0.0000
    4 C1     2py        0.0000    0.0000    0.0000    0.0000    0.0000    0.0000    0.0000    0.0000    0.0000   -0.0000
    5 C1     2pz       -0.0000   -0.0000   -0.0000   -0.0000    0.0000   -0.0000   -0.0000   -0.0000    0.0000    0.0000
    6 S2     1s        -0.0000   -0.0000   -0.0000   -0.0000   -0.0000   -0.0000    0.0000   -0.0000    0.0000    0.0000
    7 S2     2s        -0.0000   -0.0000   -0.0000   -0.0000   -0.0000   -0.0000    0.0000   -0.0000    0.0000    0.0000
    8 S2     3s        -0.0000   -0.0000    0.0000   -0.0000   -0.0000   -0.0000    0.0000   -0.0000   -0.0000    0.0000
    9 S2     2px        0.0000    0.0000   -0.0000   -0.0000    0.0000    0.0000   -0.0000   -0.0000    0.0000    0.0000
   10 S2     3px        0.0000    0.0000   -0.0000   -0.0000   -0.0000    0.0000   -0.0000   -0.0000   -0.0000    0.0000
   11 S2     2py       -0.0000   -0.0000    0.0000    0.0000    0.0000   -0.0000    0.0000    0.0000    0.0000   -0.0000
   12 S2     3py       -0.0000   -0.0000    0.0000    0.0000   -0.0000   -0.0000    0.0000    0.0000   -0.0000   -0.0000
   13 S2     2pz       -0.0000   -0.0000    0.0000   -0.0000   -0.0000   -0.0000    0.0000   -0.0000   -0.0000   -0.0000
   14 S2     3pz       -0.0000   -0.0000    0.0000   -0.0000   -0.0000   -0.0000    0.0000    0.0000   -0.0000   -0.0000
   15 O3     1s         0.0000    0.0000   -0.0000   -0.0000   -0.0000    0.0000   -0.0000   -0.0000   -0.0000    0.0000
   16 O3     2s         0.0000    0.0000    0.0000   -0.0000   -0.0000    0.0000    0.0000   -0.0000   -0.0000    0.0000
   17 O3     2px        0.0000    0.0000    0.0000    0.0000    0.0000    0.0000    0.0000    0.0000    0.0000    0.0000
   18 O3     2py       -0.0000    0.0000   -0.0000    0.0000    0.0000   -0.0000   -0.0000    0.0000    0.0000   -0.0000
   19 O3     2pz        0.0000    0.0000    0.0000   -0.0000    0.0000    0.0000   -0.0000   -0.0000    0.0000   -0.0000
   20 PU4    1s         1.0000   -0.0000   -0.0000   -0.0000    0.0000    0.0000    0.0000    0.0000   -0.0000    0.0000
   21 PU4    2s         0.0000    1.0000   -0.0000   -0.0000    0.0000   -0.0000   -0.0000   -0.0000    0.0000    0.0000
   22 PU4    3s        -0.0000    0.0000    0.0000    0.0000   -0.0000    1.0000   -0.0000   -0.0000    0.0000    0.0000
   23 PU4    4s         0.0000   -0.0000   -0.0000   -0.0000    0.0000   -0.0000    0.0000    0.0000   -0.0000   -0.0000
   24 PU4    5s        -0.0000    0.0000    0.0000    0.0000   -0.0000   -0.0000   -0.0000   -0.0000    0.0000    0.0000
   25 PU4    6s         0.0000   -0.0000   -0.0000    0.0000    0.0000    0.0000    0.0000    0.0000   -0.0000   -0.0000
   26 PU4    7s        -0.0000    0.0000   -0.0000    0.0000    0.0000   -0.0000   -0.0000    0.0000    0.0000   -0.0000
   27 PU4    2px        0.0000    0.0000   -0.0100    0.8170    0.5765   -0.0000    0.0000   -0.0000   -0.0000   -0.0000
   28 PU4    3px       -0.0000    0.0000   -0.0000    0.0000    0.0000    0.0000   -0.0142    0.8170    0.5764   -0.0000
   29 PU4    4px        0.0000   -0.0000    0.0000   -0.0000   -0.0000    0.0000    0.0000   -0.0000   -0.0000    0.0000
   30 PU4    5px       -0.0000    0.0000   -0.0000    0.0000    0.0000   -0.0000    0.0000   -0.0000   -0.0000   -0.0000
   31 PU4    6px       -0.0000   -0.0000    0.0000   -0.0000   -0.0000   -0.0000   -0.0000   -0.0000   -0.0000    0.0000
   32 PU4    7px       -0.0000   -0.0000    0.0000    0.0000    0.0000   -0.0000    0.0000    0.0000    0.0000    0.0000
   33 PU4    2py       -0.0000   -0.0000    0.0073   -0.5765    0.8171    0.0000   -0.0000    0.0000   -0.0000    0.0000
   34 PU4    3py        0.0000   -0.0000    0.0000   -0.0000    0.0000   -0.0000    0.0105   -0.5763    0.8172    0.0000
   35 PU4    4py       -0.0000    0.0000   -0.0000    0.0000   -0.0000   -0.0000   -0.0000    0.0000   -0.0000   -0.0000
   36 PU4    5py        0.0000   -0.0000    0.0000   -0.0000    0.0000    0.0000   -0.0000    0.0000   -0.0000    0.0000
   37 PU4    6py        0.0000    0.0000   -0.0000    0.0000   -0.0000    0.0000    0.0000    0.0000   -0.0000   -0.0000
   38 PU4    7py        0.0000    0.0000   -0.0000   -0.0000    0.0000    0.0000   -0.0000   -0.0000    0.0000   -0.0000
   39 PU4    2pz        0.0000    0.0000    0.9999    0.0124   -0.0002   -0.0000   -0.0000   -0.0000    0.0000   -0.0000
   40 PU4    3pz       -0.0000    0.0000    0.0000    0.0000   -0.0000    0.0000    0.9998    0.0176   -0.0004   -0.0000
   41 PU4    4pz        0.0000   -0.0000   -0.0000   -0.0000    0.0000    0.0000   -0.0000   -0.0000    0.0000    0.0000
   42 PU4    5pz       -0.0000    0.0000    0.0000    0.0000   -0.0000   -0.0000   -0.0000   -0.0000    0.0000   -0.0000
   43 PU4    6pz        0.0000   -0.0000   -0.0000   -0.0000    0.0000    0.0000    0.0000   -0.0000    0.0000    0.0000
   44 PU4    7pz       -0.0000   -0.0000    0.0000   -0.0000   -0.0000   -0.0000    0.0000   -0.0000   -0.0000   -0.0000
   45 PU4    3d2-      -0.0000   -0.0000    0.0000   -0.0000    0.0000   -0.0000    0.0000   -0.0000    0.0000    0.0110
   46 PU4    4d2-      -0.0000    0.0000   -0.0000    0.0000   -0.0000   -0.0000    0.0000   -0.0000    0.0000   -0.0000
   47 PU4    5d2-       0.0000   -0.0000   -0.0000   -0.0000    0.0000    0.0000    0.0000    0.0000   -0.0000    0.0000
   48 PU4    6d2-       0.0000    0.0000    0.0000   -0.0000   -0.0000    0.0000    0.0000   -0.0000    0.0000    0.0000
   49 PU4    3d1-       0.0000    0.0000   -0.0000   -0.0000    0.0000    0.0000   -0.0000   -0.0000    0.0000   -0.5764
   50 PU4    4d1-      -0.0000   -0.0000    0.0000    0.0000   -0.0000    0.0000   -0.0000   -0.0000    0.0000    0.0000
   51 PU4    5d1-       0.0000    0.0000   -0.0000   -0.0000    0.0000   -0.0000    0.0000    0.0000   -0.0000   -0.0000
   52 PU4    6d1-       0.0000   -0.0000   -0.0000   -0.0000   -0.0000    0.0000   -0.0000   -0.0000    0.0000    0.0000
   53 PU4    3d0        0.0000    0.0000    0.0000   -0.0000   -0.0000    0.0000    0.0000   -0.0000    0.0000    0.0116
   54 PU4    4d0       -0.0000   -0.0000   -0.0000    0.0000    0.0000    0.0000    0.0000   -0.0000   -0.0000   -0.0000
   55 PU4    5d0        0.0000    0.0000    0.0000   -0.0000   -0.0000   -0.0000   -0.0000   -0.0000    0.0000    0.0000
   56 PU4    6d0        0.0000   -0.0000   -0.0000   -0.0000   -0.0000    0.0000    0.0000   -0.0000   -0.0000   -0.0000
   57 PU4    3d1+      -0.0000   -0.0000    0.0000    0.0000    0.0000   -0.0000    0.0000    0.0000    0.0000    0.8170
   58 PU4    4d1+       0.0000    0.0000   -0.0000   -0.0000   -0.0000   -0.0000    0.0000    0.0000    0.0000   -0.0000
   59 PU4    5d1+      -0.0000   -0.0000    0.0000    0.0000    0.0000    0.0000   -0.0000   -0.0000   -0.0000    0.0000
   60 PU4    6d1+      -0.0000    0.0000    0.0000    0.0000   -0.0000   -0.0000    0.0000    0.0000    0.0000   -0.0000
   61 PU4    3d2+       0.0000    0.0000   -0.0000    0.0000    0.0000    0.0000   -0.0000    0.0000    0.0000   -0.0037
   62 PU4    4d2+       0.0000   -0.0000    0.0000   -0.0000   -0.0000    0.0000   -0.0000    0.0000    0.0000    0.0000
   63 PU4    5d2+      -0.0000    0.0000    0.0000    0.0000    0.0000   -0.0000   -0.0000   -0.0000   -0.0000   -0.0000
   64 PU4    6d2+      -0.0000   -0.0000   -0.0000    0.0000   -0.0000   -0.0000   -0.0000    0.0000    0.0000   -0.0000
   65 PU4    4f3-      -0.0000    0.0000    0.0000   -0.0000   -0.0000   -0.0000    0.0000   -0.0000   -0.0000    0.0000
   66 PU4    5f3-       0.0000    0.0000   -0.0000    0.0000    0.0000    0.0000   -0.0000    0.0000    0.0000   -0.0000
   67 PU4    4f2-      -0.0000    0.0000   -0.0000    0.0000   -0.0000    0.0000   -0.0000    0.0000   -0.0000   -0.0000
   68 PU4    5f2-       0.0000   -0.0000    0.0000    0.0000    0.0000   -0.0000    0.0000   -0.0000    0.0000    0.0000
   69 PU4    4f1-       0.0000   -0.0000    0.0000   -0.0000    0.0000    0.0000    0.0000   -0.0000    0.0000   -0.0000
   70 PU4    5f1-      -0.0000   -0.0000   -0.0000    0.0000   -0.0000   -0.0000   -0.0000    0.0000   -0.0000    0.0000
   71 PU4    4f0       -0.0000    0.0000    0.0000    0.0000   -0.0000    0.0000    0.0000    0.0000   -0.0000   -0.0000
   72 PU4    5f0       -0.0000   -0.0000    0.0000   -0.0000   -0.0000   -0.0000   -0.0000   -0.0000    0.0000    0.0000
   73 PU4    4f1+      -0.0000    0.0000   -0.0000    0.0000    0.0000   -0.0000   -0.0000    0.0000    0.0000    0.0000
   74 PU4    5f1+       0.0000    0.0000    0.0000   -0.0000   -0.0000    0.0000    0.0000   -0.0000   -0.0000   -0.0000
   75 PU4    4f2+       0.0000   -0.0000    0.0000   -0.0000   -0.0000   -0.0000    0.0000   -0.0000   -0.0000    0.0000
   76 PU4    5f2+       0.0000    0.0000   -0.0000   -0.0000    0.0000    0.0000   -0.0000    0.0000    0.0000   -0.0000
   77 PU4    4f3+      -0.0000    0.0000    0.0000   -0.0000    0.0000   -0.0000    0.0000   -0.0000    0.0000    0.0000
   78 PU4    5f3+       0.0000    0.0000   -0.0000    0.0000   -0.0000    0.0000   -0.0000    0.0000   -0.0000   -0.0000
   79 O5     1s         0.0000    0.0000   -0.0000    0.0000    0.0000    0.0000   -0.0000    0.0000    0.0000   -0.0000
   80 O5     2s         0.0000    0.0000   -0.0000    0.0000   -0.0000    0.0000   -0.0000    0.0000    0.0000   -0.0000
   81 O5     2px       -0.0000   -0.0000   -0.0000    0.0000    0.0000   -0.0000   -0.0000    0.0000    0.0000    0.0000
   82 O5     2py        0.0000    0.0000    0.0000   -0.0000   -0.0000    0.0000    0.0000   -0.0000   -0.0000   -0.0000
   83 O5     2pz        0.0000   -0.0000   -0.0000    0.0000    0.0000    0.0000   -0.0000    0.0000    0.0000    0.0000
   84 O6     1s         0.0000    0.0000   -0.0000   -0.0000    0.0000    0.0000   -0.0000   -0.0000    0.0000    0.0000
   85 O6     2s         0.0000    0.0000    0.0000   -0.0000    0.0000    0.0000    0.0000   -0.0000    0.0000    0.0000
   86 O6     2px        0.0000    0.0000    0.0000    0.0000   -0.0000    0.0000    0.0000    0.0000   -0.0000    0.0000
   87 O6     2py       -0.0000   -0.0000   -0.0000   -0.0000    0.0000   -0.0000   -0.0000   -0.0000    0.0000   -0.0000
   88 O6     2pz        0.0000    0.0000    0.0000   -0.0000   -0.0000    0.0000   -0.0000   -0.0000   -0.0000   -0.0000
   89 O7     1s         0.0000    0.0000   -0.0000   -0.0000    0.0000    0.0000   -0.0000   -0.0000    0.0000   -0.0000
   90 O7     2s        -0.0000    0.0000   -0.0000    0.0000    0.0000   -0.0000   -0.0000    0.0000   -0.0000   -0.0000
   91 O7     2px        0.0000    0.0000    0.0000   -0.0000   -0.0000    0.0000   -0.0000    0.0000    0.0000   -0.0000
   92 O7     2py       -0.0000   -0.0000   -0.0000    0.0000   -0.0000   -0.0000    0.0000   -0.0000    0.0000    0.0000
   93 O7     2pz        0.0000    0.0000    0.0000   -0.0000   -0.0000    0.0000    0.0000   -0.0000    0.0000    0.0000
   94 O8     1s         0.0000    0.0000    0.0000   -0.0000   -0.0000    0.0000    0.0000    0.0000   -0.0000    0.0000
   95 O8     2s        -0.0000    0.0000    0.0000   -0.0000   -0.0000   -0.0000    0.0000    0.0000    0.0000    0.0000
   96 O8     2px        0.0000    0.0000   -0.0000   -0.0000   -0.0000    0.0000   -0.0000    0.0000    0.0000    0.0000
   97 O8     2py       -0.0000   -0.0000    0.0000    0.0000   -0.0000   -0.0000    0.0000   -0.0000    0.0000   -0.0000
   98 O8     2pz       -0.0000   -0.0000    0.0000    0.0000    0.0000   -0.0000    0.0000    0.0000    0.0000    0.0000
   99 H9     1s         0.0000    0.0000    0.0000    0.0000   -0.0000    0.0000    0.0000    0.0000   -0.0000   -0.0000
  100 H10    1s        -0.0000   -0.0000   -0.0000   -0.0000    0.0000   -0.0000   -0.0000   -0.0000    0.0000    0.0000
  101 H11    1s         0.0000    0.0000    0.0000    0.0000    0.0000    0.0000    0.0000    0.0000    0.0000   -0.0000
  102 O12    1s         0.0000    0.0000   -0.0000    0.0000   -0.0000    0.0000   -0.0000    0.0000   -0.0000   -0.0000
  103 O12    2s         0.0000    0.0000   -0.0000    0.0000    0.0000    0.0000   -0.0000    0.0000   -0.0000   -0.0000
  104 O12    2px       -0.0000   -0.0000   -0.0000    0.0000   -0.0000   -0.0000   -0.0000    0.0000   -0.0000    0.0000
  105 O12    2py        0.0000    0.0000    0.0000   -0.0000    0.0000    0.0000    0.0000   -0.0000    0.0000   -0.0000
  106 O12    2pz        0.0000   -0.0000   -0.0000    0.0000   -0.0000    0.0000   -0.0000    0.0000   -0.0000    0.0000
 
 
      Orbital               11        12        13        14        15        16        17        18        19        20
      Energy         -143.7493 -143.7492 -143.7462 -143.7458  -92.3991  -58.6654  -45.3282  -45.3182  -45.3130  -31.2482
      Occ. No.          2.0000    2.0000    2.0000    2.0000    2.0000    2.0000    2.0000    2.0000    2.0000    2.0000
 
    1 C1     1s         0.0000    0.0000    0.0000    0.0000   -0.0000   -0.0000    0.0000    0.0000   -0.0000   -0.0000
    2 C1     2s         0.0000    0.0000    0.0000    0.0000    0.0000   -0.0000    0.0000    0.0000   -0.0000   -0.0000
    3 C1     2px       -0.0000    0.0000   -0.0000    0.0000    0.0000   -0.0000   -0.0000   -0.0000    0.0000   -0.0000
    4 C1     2py       -0.0000   -0.0000    0.0000    0.0000   -0.0000    0.0000    0.0000    0.0000    0.0000    0.0000
    5 C1     2pz        0.0000    0.0000   -0.0000   -0.0000    0.0000   -0.0000   -0.0000   -0.0000    0.0000   -0.0000
    6 S2     1s        -0.0000   -0.0000   -0.0000   -0.0000    1.0000   -0.0000   -0.0000   -0.0000    0.0000    0.0000
    7 S2     2s        -0.0000   -0.0000   -0.0000   -0.0000   -0.0000   -0.0000   -0.0000   -0.0000    0.0000    0.0000
    8 S2     3s        -0.0000   -0.0000   -0.0000   -0.0000   -0.0004   -0.0000   -0.0000   -0.0000    0.0000    0.0000
    9 S2     2px       -0.0000   -0.0000   -0.0000   -0.0000    0.0001    0.0000   -0.0000   -0.0000    0.0000    0.0000
   10 S2     3px       -0.0000   -0.0000   -0.0000   -0.0000   -0.0000    0.0000    0.0000   -0.0000    0.0000    0.0000
   11 S2     2py        0.0000    0.0000    0.0000   -0.0000   -0.0001   -0.0000    0.0000    0.0000    0.0000   -0.0000
   12 S2     3py       -0.0000    0.0000    0.0000   -0.0000    0.0000   -0.0000   -0.0000    0.0000    0.0000   -0.0000
   13 S2     2pz       -0.0000   -0.0000   -0.0000   -0.0000   -0.0001   -0.0000    0.0000   -0.0000    0.0000    0.0000
   14 S2     3pz        0.0000    0.0000   -0.0000    0.0000    0.0000   -0.0000    0.0000   -0.0000   -0.0000   -0.0000
   15 O3     1s         0.0000   -0.0000   -0.0000    0.0000    0.0000    0.0000   -0.0000   -0.0000   -0.0000    0.0000
   16 O3     2s         0.0000   -0.0000   -0.0000    0.0000    0.0000    0.0000   -0.0000   -0.0000   -0.0000    0.0000
   17 O3     2px        0.0000    0.0000   -0.0000    0.0000    0.0000    0.0000   -0.0000    0.0000    0.0000   -0.0000
   18 O3     2py       -0.0000   -0.0000   -0.0000   -0.0000    0.0000   -0.0000    0.0000    0.0000    0.0000   -0.0000
   19 O3     2pz       -0.0000   -0.0000   -0.0000    0.0000   -0.0000    0.0000    0.0000   -0.0000    0.0000    0.0000
   20 PU4    1s        -0.0000   -0.0000    0.0000   -0.0000   -0.0000   -0.0000   -0.0000    0.0000    0.0000   -0.0000
   21 PU4    2s        -0.0000   -0.0000    0.0000    0.0000   -0.0000    0.0000    0.0000    0.0000   -0.0000    0.0000
   22 PU4    3s        -0.0000   -0.0000    0.0000    0.0000   -0.0000    0.0000   -0.0000   -0.0000    0.0000   -0.0000
   23 PU4    4s         0.0000    0.0000   -0.0000   -0.0000   -0.0000    1.0000   -0.0000   -0.0000    0.0000   -0.0003
   24 PU4    5s        -0.0000   -0.0000    0.0000    0.0000   -0.0000   -0.0001    0.0000    0.0000   -0.0000    0.0005
   25 PU4    6s         0.0000    0.0000   -0.0000   -0.0000   -0.0000    0.0000   -0.0000    0.0000    0.0000   -0.0001
   26 PU4    7s        -0.0000   -0.0000    0.0000    0.0000   -0.0000   -0.0000   -0.0000    0.0000   -0.0000   -0.0000
   27 PU4    2px       -0.0000    0.0000    0.0000   -0.0000    0.0000    0.0000   -0.0000    0.0000    0.0000   -0.0000
   28 PU4    3px       -0.0000    0.0000    0.0000   -0.0000    0.0000   -0.0000   -0.0000    0.0000    0.0000    0.0000
   29 PU4    4px        0.0000    0.0000   -0.0000    0.0000    0.0000    0.0000   -0.0122    0.8171    0.5764    0.0000
   30 PU4    5px       -0.0000   -0.0000    0.0000   -0.0000    0.0000    0.0000   -0.0000   -0.0001   -0.0001   -0.0000
   31 PU4    6px       -0.0000    0.0000   -0.0000    0.0000    0.0000   -0.0000   -0.0000    0.0000    0.0000    0.0000
   32 PU4    7px        0.0000   -0.0000   -0.0000    0.0000    0.0000   -0.0000    0.0000   -0.0000   -0.0000    0.0000
   33 PU4    2py       -0.0000   -0.0000   -0.0000   -0.0000   -0.0000   -0.0000    0.0000   -0.0000    0.0000    0.0000
   34 PU4    3py       -0.0000   -0.0000   -0.0000   -0.0000   -0.0000    0.0000    0.0000   -0.0000    0.0000   -0.0000
   35 PU4    4py        0.0000   -0.0000    0.0000    0.0000   -0.0000   -0.0000    0.0090   -0.5763    0.8172   -0.0000
   36 PU4    5py       -0.0000    0.0000   -0.0000   -0.0000   -0.0000   -0.0000    0.0000    0.0000   -0.0001    0.0000
   37 PU4    6py       -0.0000   -0.0000    0.0000    0.0000   -0.0000    0.0000    0.0000   -0.0000    0.0000   -0.0000
   38 PU4    7py        0.0000    0.0000    0.0000    0.0000   -0.0000    0.0000   -0.0000    0.0000   -0.0000   -0.0000
   39 PU4    2pz       -0.0000   -0.0000    0.0000    0.0000    0.0000    0.0000    0.0000    0.0000   -0.0000    0.0000
   40 PU4    3pz       -0.0000   -0.0000    0.0000   -0.0000    0.0000   -0.0000    0.0000    0.0000   -0.0000   -0.0000
   41 PU4    4pz        0.0000    0.0000   -0.0000   -0.0000    0.0000    0.0000    0.9999    0.0151   -0.0003   -0.0000
   42 PU4    5pz        0.0000    0.0000    0.0000    0.0000    0.0000    0.0000    0.0001   -0.0000   -0.0000    0.0000
   43 PU4    6pz       -0.0000   -0.0000   -0.0000   -0.0000    0.0000    0.0000   -0.0000   -0.0000   -0.0000    0.0000
   44 PU4    7pz       -0.0000   -0.0000   -0.0000    0.0000   -0.0000   -0.0000    0.0000   -0.0000    0.0000    0.0000
   45 PU4    3d2-      -0.0027    0.1431    0.9309    0.3358    0.0000    0.0000   -0.0000    0.0000   -0.0000    0.0000
   46 PU4    4d2-       0.0000   -0.0000   -0.0000   -0.0000    0.0000   -0.0001    0.0000   -0.0000    0.0000    0.1334
   47 PU4    5d2-      -0.0000    0.0000    0.0000    0.0000    0.0000   -0.0000    0.0000   -0.0000    0.0000    0.0001
   48 PU4    6d2-       0.0000   -0.0000   -0.0000   -0.0000    0.0000    0.0000   -0.0000   -0.0000    0.0000    0.0000
   49 PU4    3d1-       0.8170   -0.0004    0.0054    0.0106    0.0000   -0.0000    0.0000    0.0000   -0.0000    0.0000
   50 PU4    4d1-      -0.0000    0.0000   -0.0000   -0.0000    0.0000    0.0000   -0.0000   -0.0000    0.0000    0.0116
   51 PU4    5d1-       0.0000    0.0000    0.0000    0.0000    0.0000    0.0000   -0.0000    0.0000   -0.0000    0.0000
   52 PU4    6d1-      -0.0000    0.0000   -0.0000   -0.0000   -0.0000    0.0000   -0.0000   -0.0000    0.0000    0.0000
   53 PU4    3d0        0.0097    0.9883   -0.1521    0.0001    0.0000   -0.0000   -0.0000   -0.0000    0.0000    0.0000
   54 PU4    4d0       -0.0000   -0.0000    0.0000   -0.0000    0.0000    0.0003    0.0000   -0.0000    0.0000    0.9897
   55 PU4    5d0        0.0000    0.0000   -0.0000    0.0000    0.0000    0.0000   -0.0000    0.0000   -0.0000    0.0010
   56 PU4    6d0       -0.0000   -0.0000   -0.0000   -0.0000    0.0000    0.0000    0.0000   -0.0000   -0.0000   -0.0000
   57 PU4    3d1+       0.5763   -0.0165   -0.0080    0.0072   -0.0000    0.0000   -0.0000   -0.0000   -0.0000   -0.0000
   58 PU4    4d1+      -0.0000    0.0000    0.0000   -0.0000   -0.0000   -0.0000    0.0000    0.0000    0.0000   -0.0161
   59 PU4    5d1+       0.0000   -0.0000   -0.0000    0.0000   -0.0000   -0.0000    0.0000   -0.0000   -0.0000   -0.0000
   60 PU4    6d1+      -0.0000    0.0000    0.0000   -0.0000    0.0000   -0.0000    0.0000    0.0000    0.0000   -0.0000
   61 PU4    3d2+      -0.0126   -0.0510   -0.3319    0.9419   -0.0000   -0.0000    0.0000   -0.0000   -0.0000   -0.0000
   62 PU4    4d2+       0.0000    0.0000    0.0000   -0.0000   -0.0000    0.0000   -0.0000    0.0000    0.0000   -0.0475
   63 PU4    5d2+      -0.0000   -0.0000   -0.0000    0.0000   -0.0000    0.0000   -0.0000    0.0000    0.0000   -0.0000
   64 PU4    6d2+       0.0000    0.0000    0.0000   -0.0000   -0.0000   -0.0000    0.0000    0.0000    0.0000   -0.0000
   65 PU4    4f3-       0.0000    0.0000    0.0000   -0.0000   -0.0000    0.0000    0.0000   -0.0001   -0.0000    0.0000
   66 PU4    5f3-      -0.0000   -0.0000   -0.0000    0.0000   -0.0000    0.0000    0.0000   -0.0000   -0.0000   -0.0000
   67 PU4    4f2-       0.0000    0.0000    0.0000    0.0000   -0.0000    0.0000   -0.0001    0.0000   -0.0000    0.0000
   68 PU4    5f2-      -0.0000   -0.0000   -0.0000   -0.0000    0.0000   -0.0000   -0.0000    0.0000   -0.0000   -0.0000
   69 PU4    4f1-       0.0000   -0.0000   -0.0000   -0.0000    0.0000   -0.0000    0.0000   -0.0001    0.0002   -0.0000
   70 PU4    5f1-      -0.0000    0.0000    0.0000    0.0000    0.0000   -0.0000    0.0000   -0.0000    0.0000   -0.0000
   71 PU4    4f0        0.0000    0.0000   -0.0000   -0.0000   -0.0000    0.0000    0.0004    0.0000   -0.0000    0.0000
   72 PU4    5f0       -0.0000   -0.0000    0.0000    0.0000   -0.0000   -0.0000    0.0001    0.0000   -0.0000    0.0000
   73 PU4    4f1+       0.0000    0.0000    0.0000   -0.0000   -0.0000    0.0000   -0.0000    0.0002    0.0002    0.0000
   74 PU4    5f1+      -0.0000   -0.0000   -0.0000    0.0000   -0.0000    0.0000   -0.0000    0.0000    0.0000    0.0000
   75 PU4    4f2+       0.0000   -0.0000   -0.0000    0.0000    0.0000   -0.0000    0.0000   -0.0000   -0.0000   -0.0000
   76 PU4    5f2+      -0.0000    0.0000    0.0000   -0.0000   -0.0000    0.0000    0.0000   -0.0000   -0.0000    0.0000
   77 PU4    4f3+      -0.0000    0.0000    0.0000    0.0000   -0.0000    0.0000    0.0000   -0.0000    0.0001    0.0000
   78 PU4    5f3+       0.0000   -0.0000   -0.0000   -0.0000   -0.0000    0.0000   -0.0000   -0.0000    0.0000   -0.0000
   79 O5     1s        -0.0000   -0.0000   -0.0000    0.0000   -0.0000    0.0000   -0.0000    0.0000    0.0000    0.0000
   80 O5     2s        -0.0000   -0.0000   -0.0000    0.0000   -0.0000    0.0000   -0.0000    0.0000    0.0000    0.0000
   81 O5     2px       -0.0000   -0.0000   -0.0000    0.0000    0.0000   -0.0000   -0.0000    0.0000    0.0000    0.0000
   82 O5     2py       -0.0000    0.0000    0.0000    0.0000   -0.0000    0.0000    0.0000   -0.0000    0.0000   -0.0000
   83 O5     2pz        0.0000   -0.0000   -0.0000    0.0000    0.0000   -0.0000    0.0000    0.0000    0.0000   -0.0000
   84 O6     1s        -0.0000   -0.0000   -0.0000   -0.0000    0.0000    0.0000   -0.0000   -0.0000    0.0000    0.0000
   85 O6     2s        -0.0000   -0.0000   -0.0000   -0.0000    0.0000    0.0000    0.0000   -0.0000    0.0000    0.0000
   86 O6     2px       -0.0000    0.0000    0.0000   -0.0000   -0.0000    0.0000   -0.0000   -0.0000    0.0000   -0.0000
   87 O6     2py        0.0000   -0.0000    0.0000   -0.0000   -0.0000   -0.0000    0.0000   -0.0000    0.0000    0.0000
   88 O6     2pz        0.0000   -0.0000   -0.0000   -0.0000   -0.0000    0.0000    0.0000   -0.0000   -0.0000    0.0000
   89 O7     1s        -0.0000   -0.0000    0.0000   -0.0000    0.0000    0.0000   -0.0000   -0.0000    0.0000    0.0000
   90 O7     2s        -0.0000   -0.0000    0.0000   -0.0000    0.0000    0.0000   -0.0000   -0.0000    0.0000    0.0000
   91 O7     2px       -0.0000    0.0000    0.0000   -0.0000   -0.0000    0.0000   -0.0000   -0.0000   -0.0000   -0.0000
   92 O7     2py       -0.0000   -0.0000   -0.0000   -0.0000    0.0000   -0.0000    0.0000    0.0000   -0.0000    0.0000
   93 O7     2pz        0.0000    0.0000   -0.0000   -0.0000    0.0000    0.0000   -0.0000   -0.0000   -0.0000   -0.0000
   94 O8     1s        -0.0000   -0.0000    0.0000    0.0000    0.0000    0.0000    0.0000   -0.0000   -0.0000    0.0000
   95 O8     2s        -0.0000   -0.0000    0.0000    0.0000    0.0000    0.0000    0.0000   -0.0000   -0.0000    0.0000
   96 O8     2px        0.0000    0.0000   -0.0000   -0.0000   -0.0000    0.0000    0.0000   -0.0000   -0.0000   -0.0000
   97 O8     2py        0.0000   -0.0000    0.0000   -0.0000    0.0000   -0.0000   -0.0000    0.0000   -0.0000    0.0000
   98 O8     2pz       -0.0000   -0.0000    0.0000   -0.0000   -0.0000   -0.0000   -0.0000    0.0000   -0.0000    0.0000
   99 H9     1s         0.0000    0.0000    0.0000    0.0000   -0.0000    0.0000    0.0000    0.0000   -0.0000   -0.0000
  100 H10    1s        -0.0000    0.0000   -0.0000   -0.0000   -0.0000   -0.0000   -0.0000   -0.0000    0.0000    0.0000
  101 H11    1s        -0.0000    0.0000    0.0000   -0.0000   -0.0000    0.0000    0.0000    0.0000    0.0000   -0.0000
  102 O12    1s         0.0000   -0.0000   -0.0000   -0.0000   -0.0000    0.0000   -0.0000    0.0000   -0.0000    0.0000
  103 O12    2s         0.0000   -0.0000   -0.0000   -0.0000   -0.0000    0.0000   -0.0000    0.0000   -0.0000    0.0000
  104 O12    2px       -0.0000   -0.0000   -0.0000    0.0000    0.0000   -0.0000   -0.0000    0.0000   -0.0000    0.0000
  105 O12    2py       -0.0000    0.0000    0.0000    0.0000    0.0000    0.0000    0.0000   -0.0000    0.0000   -0.0000
  106 O12    2pz       -0.0000   -0.0000   -0.0000   -0.0000    0.0000   -0.0000    0.0000    0.0000   -0.0000   -0.0000
 
 
      Orbital               21        22        23        24        25        26        27        28        29        30
      Energy          -31.2429  -31.2401  -31.2326  -31.2309  -20.3881  -20.3876  -20.3527  -20.3451  -20.2396  -20.2395
      Occ. No.          2.0000    2.0000    2.0000    2.0000    2.0000    2.0000    2.0000    2.0000    2.0000    2.0000
 
    1 C1     1s         0.0000   -0.0000   -0.0000   -0.0000    0.0000    0.0000    0.0000   -0.0000    0.0000    0.0000
    2 C1     2s         0.0000   -0.0000   -0.0000   -0.0000   -0.0000   -0.0000    0.0000   -0.0000   -0.0000   -0.0000
    3 C1     2px       -0.0000   -0.0000    0.0000    0.0000   -0.0000   -0.0000    0.0000    0.0000    0.0000    0.0000
    4 C1     2py        0.0000   -0.0000    0.0000   -0.0000    0.0000    0.0000   -0.0000   -0.0000    0.0000   -0.0000
    5 C1     2pz       -0.0000    0.0000    0.0000    0.0000   -0.0000   -0.0000    0.0000    0.0000   -0.0000   -0.0000
    6 S2     1s        -0.0000   -0.0000    0.0000    0.0000   -0.0000   -0.0000    0.0000    0.0000   -0.0000   -0.0000
    7 S2     2s        -0.0000   -0.0000    0.0000    0.0000   -0.0000   -0.0000    0.0000    0.0000   -0.0001   -0.0003
    8 S2     3s        -0.0000   -0.0000    0.0000    0.0000   -0.0000   -0.0000    0.0000    0.0000   -0.0004   -0.0013
    9 S2     2px       -0.0000   -0.0000    0.0000    0.0000   -0.0000    0.0000    0.0000    0.0000   -0.0001   -0.0001
   10 S2     3px       -0.0000    0.0000    0.0000    0.0000   -0.0000    0.0000    0.0000    0.0000   -0.0008   -0.0004
   11 S2     2py        0.0000   -0.0000    0.0000   -0.0000    0.0000    0.0000   -0.0000   -0.0000   -0.0001    0.0001
   12 S2     3py        0.0000    0.0000    0.0000   -0.0000    0.0000    0.0000   -0.0000   -0.0000   -0.0007    0.0007
   13 S2     2pz        0.0000   -0.0000    0.0000    0.0000   -0.0000   -0.0000    0.0000   -0.0000   -0.0000   -0.0000
   14 S2     3pz        0.0000   -0.0000   -0.0000    0.0000   -0.0000   -0.0000    0.0000   -0.0000   -0.0000   -0.0001
   15 O3     1s        -0.0000   -0.0000   -0.0000    0.0000   -0.0000   -0.0000   -0.0000   -0.0000   -0.4878    0.8731
   16 O3     2s        -0.0000   -0.0000   -0.0000    0.0000   -0.0000   -0.0000    0.0000    0.0000   -0.0008    0.0016
   17 O3     2px       -0.0000   -0.0000   -0.0000    0.0000   -0.0000   -0.0000   -0.0000   -0.0000   -0.0001    0.0003
   18 O3     2py        0.0000    0.0000    0.0000    0.0000    0.0000    0.0000   -0.0000   -0.0000   -0.0009    0.0016
   19 O3     2pz        0.0000    0.0000   -0.0000    0.0000   -0.0000   -0.0000    0.0000   -0.0000    0.0001   -0.0002
   20 PU4    1s         0.0000    0.0000    0.0000    0.0000   -0.0000   -0.0000   -0.0000   -0.0000   -0.0000   -0.0000
   21 PU4    2s        -0.0000    0.0000   -0.0000   -0.0000   -0.0000   -0.0000   -0.0000   -0.0000   -0.0000   -0.0000
   22 PU4    3s         0.0000   -0.0000    0.0000    0.0000   -0.0000   -0.0000   -0.0000   -0.0000   -0.0000   -0.0000
   23 PU4    4s         0.0000   -0.0000    0.0000    0.0002   -0.0000   -0.0000   -0.0001   -0.0001   -0.0000   -0.0000
   24 PU4    5s        -0.0000   -0.0000   -0.0000   -0.0002   -0.0000   -0.0000   -0.0002   -0.0002   -0.0000   -0.0000
   25 PU4    6s         0.0000    0.0000    0.0000    0.0000   -0.0002   -0.0000   -0.0006   -0.0006   -0.0000   -0.0001
   26 PU4    7s         0.0000    0.0000   -0.0000   -0.0000   -0.0004   -0.0000   -0.0006   -0.0006   -0.0001   -0.0002
   27 PU4    2px        0.0000    0.0000    0.0000   -0.0000   -0.0000   -0.0000    0.0000   -0.0000    0.0000    0.0000
   28 PU4    3px       -0.0000   -0.0000   -0.0000    0.0000   -0.0000    0.0000    0.0000   -0.0000    0.0000    0.0000
   29 PU4    4px       -0.0000   -0.0000   -0.0000    0.0000   -0.0000   -0.0000    0.0000   -0.0000    0.0000    0.0000
   30 PU4    5px        0.0000    0.0000    0.0000   -0.0000   -0.0000    0.0000    0.0000   -0.0000    0.0000    0.0000
   31 PU4    6px       -0.0000   -0.0000   -0.0000    0.0000   -0.0003   -0.0000    0.0000    0.0000    0.0000    0.0001
   32 PU4    7px       -0.0000   -0.0000   -0.0000    0.0000   -0.0005   -0.0001    0.0000    0.0000    0.0001    0.0003
   33 PU4    2py       -0.0000    0.0000    0.0000    0.0000    0.0000    0.0000   -0.0000    0.0000   -0.0000   -0.0000
   34 PU4    3py        0.0000   -0.0000   -0.0000   -0.0000    0.0000    0.0000   -0.0000    0.0000   -0.0000   -0.0000
   35 PU4    4py        0.0000   -0.0000   -0.0000   -0.0000    0.0000    0.0000   -0.0000    0.0000   -0.0000   -0.0000
   36 PU4    5py       -0.0000    0.0000    0.0000    0.0000    0.0000    0.0000   -0.0000    0.0000   -0.0000   -0.0000
   37 PU4    6py        0.0000   -0.0000   -0.0000   -0.0000    0.0002    0.0000   -0.0000   -0.0000   -0.0001   -0.0001
   38 PU4    7py        0.0000   -0.0000   -0.0000   -0.0000    0.0004    0.0000   -0.0000   -0.0000   -0.0001   -0.0002
   39 PU4    2pz        0.0000   -0.0000   -0.0000   -0.0000   -0.0000   -0.0000   -0.0000    0.0000    0.0000    0.0000
   40 PU4    3pz       -0.0000    0.0000    0.0000    0.0000   -0.0000   -0.0000   -0.0000    0.0000    0.0000    0.0000
   41 PU4    4pz       -0.0000    0.0000   -0.0000    0.0000   -0.0000   -0.0000   -0.0000    0.0000    0.0000    0.0000
   42 PU4    5pz        0.0000   -0.0000   -0.0000   -0.0000   -0.0000   -0.0000   -0.0001    0.0001    0.0000    0.0000
   43 PU4    6pz       -0.0000    0.0000   -0.0000    0.0000   -0.0000   -0.0000   -0.0006    0.0006    0.0000    0.0000
   44 PU4    7pz       -0.0000    0.0000   -0.0000    0.0000   -0.0000   -0.0000   -0.0005    0.0005    0.0000    0.0000
   45 PU4    3d2-       0.0000   -0.0000    0.0000    0.0000    0.0000    0.0000    0.0000    0.0000    0.0000    0.0000
   46 PU4    4d2-       0.0120   -0.0047    0.3358    0.9324    0.0000    0.0000   -0.0000   -0.0000    0.0000    0.0000
   47 PU4    5d2-       0.0000   -0.0000    0.0003    0.0008    0.0000    0.0000    0.0000    0.0000    0.0000    0.0000
   48 PU4    6d2-       0.0000   -0.0000    0.0000    0.0001    0.0003    0.0000    0.0000    0.0000    0.0001    0.0002
   49 PU4    3d1-      -0.0000    0.0000    0.0000    0.0000    0.0000    0.0000   -0.0000   -0.0000    0.0000    0.0000
   50 PU4    4d1-      -0.5761    0.8172    0.0124    0.0054    0.0000    0.0000   -0.0000   -0.0000    0.0000    0.0000
   51 PU4    5d1-      -0.0006    0.0008    0.0000    0.0000    0.0000    0.0000   -0.0000   -0.0000    0.0000    0.0000
   52 PU4    6d1-      -0.0000    0.0000    0.0000    0.0000    0.0000    0.0000   -0.0000    0.0000    0.0000    0.0000
   53 PU4    3d0        0.0000   -0.0000   -0.0000   -0.0000    0.0000    0.0000   -0.0000   -0.0000    0.0000    0.0000
   54 PU4    4d0        0.0182   -0.0003   -0.0001   -0.1418    0.0000    0.0000   -0.0000   -0.0000    0.0000    0.0000
   55 PU4    5d0        0.0000   -0.0000   -0.0000   -0.0001    0.0000    0.0000   -0.0001   -0.0001    0.0000    0.0000
   56 PU4    6d0        0.0000   -0.0000   -0.0000    0.0000    0.0002    0.0000   -0.0005   -0.0005    0.0000    0.0001
   57 PU4    3d1+       0.0000    0.0000    0.0000   -0.0000   -0.0000   -0.0000    0.0000    0.0000    0.0000   -0.0000
   58 PU4    4d1+       0.8171    0.5762    0.0084   -0.0083   -0.0000    0.0000    0.0000    0.0000    0.0000   -0.0000
   59 PU4    5d1+       0.0008    0.0005    0.0000   -0.0000   -0.0000    0.0000    0.0000    0.0000    0.0000   -0.0000
   60 PU4    6d1+       0.0000    0.0000    0.0000   -0.0000   -0.0000    0.0000    0.0000   -0.0000    0.0000   -0.0000
   61 PU4    3d2+      -0.0000   -0.0000    0.0000   -0.0000   -0.0000    0.0000   -0.0000   -0.0000    0.0000   -0.0000
   62 PU4    4d2+      -0.0040   -0.0142    0.9418   -0.3324   -0.0000    0.0000    0.0000    0.0000    0.0000   -0.0000
   63 PU4    5d2+      -0.0000   -0.0000    0.0008   -0.0003   -0.0000    0.0000   -0.0000   -0.0000    0.0000   -0.0000
   64 PU4    6d2+      -0.0000   -0.0000    0.0001   -0.0000   -0.0001    0.0000   -0.0000   -0.0000    0.0001   -0.0001
   65 PU4    4f3-       0.0000    0.0000   -0.0000    0.0000    0.0000   -0.0000    0.0000   -0.0000    0.0000    0.0000
   66 PU4    5f3-       0.0000    0.0000   -0.0000    0.0000    0.0001    0.0000   -0.0000   -0.0000    0.0000   -0.0000
   67 PU4    4f2-      -0.0000    0.0000    0.0000    0.0000    0.0000    0.0000    0.0000   -0.0000   -0.0000   -0.0000
   68 PU4    5f2-      -0.0000    0.0000   -0.0000   -0.0000    0.0000    0.0000    0.0000   -0.0000   -0.0000   -0.0000
   69 PU4    4f1-      -0.0000    0.0000   -0.0000   -0.0000   -0.0000   -0.0000    0.0000    0.0000    0.0000    0.0000
   70 PU4    5f1-      -0.0000    0.0000   -0.0000    0.0000   -0.0000   -0.0000   -0.0000    0.0000    0.0000    0.0000
   71 PU4    4f0       -0.0000    0.0000    0.0000   -0.0000    0.0000    0.0000   -0.0000    0.0000   -0.0000   -0.0000
   72 PU4    5f0       -0.0000   -0.0000    0.0000   -0.0000   -0.0000    0.0000   -0.0001    0.0001   -0.0000   -0.0000
   73 PU4    4f1+       0.0000    0.0000   -0.0000    0.0000    0.0000   -0.0000   -0.0000   -0.0000    0.0000   -0.0000
   74 PU4    5f1+       0.0000    0.0000   -0.0000   -0.0000    0.0000    0.0000    0.0000   -0.0000   -0.0000   -0.0000
   75 PU4    4f2+       0.0000    0.0000    0.0000   -0.0000   -0.0000    0.0000   -0.0000    0.0000   -0.0000    0.0000
   76 PU4    5f2+       0.0000    0.0000   -0.0000    0.0000   -0.0000    0.0000   -0.0000    0.0000   -0.0000    0.0000
   77 PU4    4f3+       0.0000   -0.0000    0.0000    0.0000   -0.0000    0.0000    0.0000   -0.0000   -0.0000    0.0000
   78 PU4    5f3+       0.0000   -0.0000    0.0000    0.0000    0.0000    0.0000   -0.0000   -0.0000   -0.0000    0.0000
   79 O5     1s         0.0000    0.0000   -0.0000    0.0000    0.7631   -0.6464    0.0000    0.0000   -0.0000    0.0000
   80 O5     2s         0.0000    0.0000   -0.0000    0.0000    0.0004   -0.0011    0.0000    0.0000   -0.0000   -0.0000
   81 O5     2px        0.0000    0.0000   -0.0000   -0.0000   -0.0008    0.0009    0.0000    0.0000    0.0000   -0.0000
   82 O5     2py       -0.0000    0.0000   -0.0000   -0.0000   -0.0005    0.0009   -0.0000   -0.0000   -0.0000   -0.0000
   83 O5     2pz       -0.0000   -0.0000   -0.0000    0.0000   -0.0000    0.0000    0.0000   -0.0000   -0.0000   -0.0000
   84 O6     1s        -0.0000    0.0000    0.0000    0.0000   -0.0000   -0.0000   -0.0000   -0.0000    0.8731    0.4878
   85 O6     2s        -0.0000    0.0000    0.0000    0.0000   -0.0000    0.0000    0.0000    0.0000    0.0016    0.0009
   86 O6     2px       -0.0000    0.0000    0.0000   -0.0000   -0.0000    0.0000    0.0000    0.0000   -0.0015   -0.0008
   87 O6     2py       -0.0000   -0.0000   -0.0000   -0.0000   -0.0000   -0.0000    0.0000    0.0000   -0.0008   -0.0005
   88 O6     2pz        0.0000   -0.0000    0.0000    0.0000   -0.0000    0.0000    0.0000   -0.0000   -0.0002   -0.0001
   89 O7     1s         0.0000   -0.0000    0.0000   -0.0000   -0.0000   -0.0000    1.0001   -0.0011    0.0000    0.0000
   90 O7     2s         0.0000   -0.0000    0.0000   -0.0000    0.0000    0.0000    0.0014    0.0001   -0.0000   -0.0000
   91 O7     2px        0.0000    0.0000    0.0000    0.0000    0.0000    0.0000   -0.0000   -0.0000   -0.0000   -0.0000
   92 O7     2py       -0.0000    0.0000    0.0000   -0.0000   -0.0000    0.0000    0.0000    0.0000    0.0000    0.0000
   93 O7     2pz       -0.0000    0.0000   -0.0000    0.0000    0.0000    0.0000   -0.0014   -0.0001    0.0000    0.0000
   94 O8     1s        -0.0000   -0.0000   -0.0000   -0.0000   -0.0000   -0.0000    0.0011    1.0001    0.0000    0.0000
   95 O8     2s        -0.0000   -0.0000   -0.0000    0.0000    0.0000    0.0000    0.0001    0.0014    0.0000    0.0000
   96 O8     2px       -0.0000   -0.0000    0.0000    0.0000    0.0000    0.0000   -0.0000   -0.0000   -0.0000   -0.0000
   97 O8     2py        0.0000   -0.0000    0.0000   -0.0000   -0.0000    0.0000    0.0000    0.0000    0.0000    0.0000
   98 O8     2pz       -0.0000   -0.0000   -0.0000   -0.0000   -0.0000   -0.0000    0.0001    0.0014   -0.0000   -0.0000
   99 H9     1s         0.0000   -0.0000   -0.0000    0.0000   -0.0000   -0.0000    0.0000    0.0000    0.0000   -0.0000
  100 H10    1s        -0.0000    0.0000    0.0000    0.0000   -0.0000   -0.0000    0.0000    0.0001    0.0000    0.0000
  101 H11    1s         0.0000    0.0000    0.0000    0.0000   -0.0000   -0.0000    0.0000    0.0000   -0.0000   -0.0000
  102 O12    1s         0.0000   -0.0000    0.0000    0.0000    0.6462    0.7632    0.0000    0.0000    0.0000   -0.0000
  103 O12    2s         0.0000   -0.0000    0.0000    0.0000    0.0002    0.0012    0.0000    0.0000   -0.0000   -0.0000
  104 O12    2px        0.0000    0.0000   -0.0000    0.0000    0.0001    0.0006    0.0000    0.0000   -0.0000    0.0000
  105 O12    2py       -0.0000    0.0000   -0.0000    0.0000    0.0007    0.0013   -0.0000   -0.0000    0.0000    0.0000
  106 O12    2pz       -0.0000    0.0000    0.0000    0.0000   -0.0000   -0.0000    0.0000   -0.0000    0.0000   -0.0000
 
 
      Orbital               31        32        33        34        35        36        37        38        39        40
      Energy          -16.7912  -16.7840  -16.7828  -16.7741  -16.7726  -16.7710  -16.7691  -13.7119  -11.2123   -9.4389
      Occ. No.          2.0000    2.0000    2.0000    2.0000    2.0000    2.0000    2.0000    2.0000    2.0000    2.0000
 
    1 C1     1s        -0.0000   -0.0000   -0.0000   -0.0000   -0.0000   -0.0000   -0.0000   -0.0000    1.0003   -0.0000
    2 C1     2s        -0.0000   -0.0000   -0.0000   -0.0000   -0.0000   -0.0000   -0.0000   -0.0000    0.0014   -0.0000
    3 C1     2px       -0.0000   -0.0000   -0.0000   -0.0000   -0.0000   -0.0000   -0.0000   -0.0000   -0.0001   -0.0000
    4 C1     2py        0.0000   -0.0000    0.0000    0.0000   -0.0000    0.0000   -0.0000    0.0000    0.0001    0.0000
    5 C1     2pz        0.0000   -0.0000   -0.0000    0.0000   -0.0000   -0.0000   -0.0000   -0.0000    0.0001    0.0000
    6 S2     1s        -0.0000   -0.0000   -0.0000   -0.0000   -0.0000   -0.0000   -0.0000   -0.0000   -0.0000    0.0000
[...]
      5s       0.0000  0.0000  0.0000  2.0000  0.0000  0.0000  0.0000  0.0000  0.0000  0.0000  0.0000  0.0000
      4d2+     0.0000  0.0000  0.0000  2.0000  0.0000  0.0000  0.0000  0.0000  0.0000  0.0000  0.0000  0.0000
      4d1+     0.0000  0.0000  0.0000  2.0000  0.0000  0.0000  0.0000  0.0000  0.0000  0.0000  0.0000  0.0000
      4d0      0.0000  0.0000  0.0000  2.0000  0.0000  0.0000  0.0000  0.0000  0.0000  0.0000  0.0000  0.0000
      4d1-     0.0000  0.0000  0.0000  2.0000  0.0000  0.0000  0.0000  0.0000  0.0000  0.0000  0.0000  0.0000
      4d2-     0.0000  0.0000  0.0000  2.0000  0.0000  0.0000  0.0000  0.0000  0.0000  0.0000  0.0000  0.0000
      5px      0.0000  0.0000  0.0000  2.0000  0.0000  0.0000  0.0000  0.0000  0.0000  0.0000  0.0000  0.0000
      5pz      0.0000  0.0000  0.0000  2.0001  0.0000  0.0000  0.0000  0.0000  0.0000  0.0000  0.0000  0.0000
      5py      0.0000  0.0000  0.0000  2.0000  0.0000  0.0000  0.0000  0.0000  0.0000  0.0000  0.0000  0.0000
      6s       0.0000  0.0000  0.0000  1.9836  0.0000  0.0000  0.0000  0.0000  0.0000  0.0000  0.0000  0.0000
      4f3+     0.0000  0.0000  0.0000  2.0000  0.0000  0.0000  0.0000  0.0000  0.0000  0.0000  0.0000  0.0000
      4f2+     0.0000  0.0000  0.0000  2.0000  0.0000  0.0000  0.0000  0.0000  0.0000  0.0000  0.0000  0.0000
      4f1+     0.0000  0.0000  0.0000  2.0000  0.0000  0.0000  0.0000  0.0000  0.0000  0.0000  0.0000  0.0000
      4f0      0.0000  0.0000  0.0000  2.0000  0.0000  0.0000  0.0000  0.0000  0.0000  0.0000  0.0000  0.0000
      4f1-     0.0000  0.0000  0.0000  2.0000  0.0000  0.0000  0.0000  0.0000  0.0000  0.0000  0.0000  0.0000
      4f2-     0.0000  0.0000  0.0000  2.0000  0.0000  0.0000  0.0000  0.0000  0.0000  0.0000  0.0000  0.0000
      4f3-     0.0000  0.0000  0.0000  2.0000  0.0000  0.0000  0.0000  0.0000  0.0000  0.0000  0.0000  0.0000
      5d2+     0.0000  0.0000  0.0000  1.9998  0.0000  0.0000  0.0000  0.0000  0.0000  0.0000  0.0000  0.0000
      5d1+     0.0000  0.0000  0.0000  1.9997  0.0000  0.0000  0.0000  0.0000  0.0000  0.0000  0.0000  0.0000
      5d0      0.0000  0.0000  0.0000  1.9983  0.0000  0.0000  0.0000  0.0000  0.0000  0.0000  0.0000  0.0000
      5d1-     0.0000  0.0000  0.0000  1.9997  0.0000  0.0000  0.0000  0.0000  0.0000  0.0000  0.0000  0.0000
      5d2-     0.0000  0.0000  0.0000  1.9998  0.0000  0.0000  0.0000  0.0000  0.0000  0.0000  0.0000  0.0000
      6px      0.0000  0.0000  0.0000  1.9762  0.0000  0.0000  0.0000  0.0000  0.0000  0.0000  0.0000  0.0000
      6pz      0.0000  0.0000  0.0000  1.7451  0.0000  0.0000  0.0000  0.0000  0.0000  0.0000  0.0000  0.0000
      6py      0.0000  0.0000  0.0000  1.9800  0.0000  0.0000  0.0000  0.0000  0.0000  0.0000  0.0000  0.0000
      7s       0.0000  0.0000  0.0000  0.1533  0.0000  0.0000  0.0000  0.0000  0.0000  0.0000  0.0000  0.0000
      5f3+     0.0000  0.0000  0.0000  0.6535  0.0000  0.0000  0.0000  0.0000  0.0000  0.0000  0.0000  0.0000
      5f2+     0.0000  0.0000  0.0000  0.6595  0.0000  0.0000  0.0000  0.0000  0.0000  0.0000  0.0000  0.0000
      5f1+     0.0000  0.0000  0.0000  0.2779  0.0000  0.0000  0.0000  0.0000  0.0000  0.0000  0.0000  0.0000
      5f0      0.0000  0.0000  0.0000  1.2401  0.0000  0.0000  0.0000  0.0000  0.0000  0.0000  0.0000  0.0000
      5f1-     0.0000  0.0000  0.0000  0.2796  0.0000  0.0000  0.0000  0.0000  0.0000  0.0000  0.0000  0.0000
      5f2-     0.0000  0.0000  0.0000  1.0571  0.0000  0.0000  0.0000  0.0000  0.0000  0.0000  0.0000  0.0000
      5f3-     0.0000  0.0000  0.0000  0.6527  0.0000  0.0000  0.0000  0.0000  0.0000  0.0000  0.0000  0.0000
      6d2+     0.0000  0.0000  0.0000  0.1773  0.0000  0.0000  0.0000  0.0000  0.0000  0.0000  0.0000  0.0000
      6d1+     0.0000  0.0000  0.0000  0.4207  0.0000  0.0000  0.0000  0.0000  0.0000  0.0000  0.0000  0.0000
      6d0      0.0000  0.0000  0.0000  0.4601  0.0000  0.0000  0.0000  0.0000  0.0000  0.0000  0.0000  0.0000
      6d1-     0.0000  0.0000  0.0000  0.4262  0.0000  0.0000  0.0000  0.0000  0.0000  0.0000  0.0000  0.0000
      6d2-     0.0000  0.0000  0.0000  0.0593  0.0000  0.0000  0.0000  0.0000  0.0000  0.0000  0.0000  0.0000
      7px      0.0000  0.0000  0.0000  0.1132  0.0000  0.0000  0.0000  0.0000  0.0000  0.0000  0.0000  0.0000
      7pz      0.0000  0.0000  0.0000  0.0907  0.0000  0.0000  0.0000  0.0000  0.0000  0.0000  0.0000  0.0000
      7py      0.0000  0.0000  0.0000  0.1026  0.0000  0.0000  0.0000  0.0000  0.0000  0.0000  0.0000  0.0000
      Total    6.5973 15.0953  8.7491 92.5060  8.3606  8.7491  8.5426  8.5558  0.8389  0.8056  0.8389  8.3607
 
      N-E     -0.5973  0.9047 -0.7491  1.4940 -0.3606 -0.7491 -0.5426 -0.5558  0.1611  0.1944  0.1611 -0.3607
 
      Total electronic charge=  168.000000
 
      Total            charge=   -1.000000
--
 
 

      Expectation values of various properties for root number: 16
      -----------------------------------------------------------
 
 
++    Molecular properties:
      ---------------------
 
      Charge (e):
                      =   -1.0000
      Dipole Moment (Debye):
      Origin of the operator (Ang)=    0.0000    0.0000    0.0000
                   X= -1.8795E+00               Y=  1.3269E+00               Z= -1.1809E+00           Total=  2.5861E+00
      Center of Charge (Ang)
                     X=    0.39130983               Y=   -0.27625613               Z=    0.24586217
      Quadrupole Moment (Debye*Ang):
      Origin of the operator (Ang)=   -0.3096    0.2190   -0.1037
                  XX= -1.1304E+02              XY=  8.5012E+00              XZ=  2.5625E+00              YY= -1.0694E+02
                  YZ= -1.8445E+00              ZZ= -1.0865E+02
      In traceless form (Debye*Ang)
                  XX= -5.2415E+00              XY=  1.2752E+01              XZ=  3.8438E+00              YY=  3.8991E+00
                  YZ= -2.7668E+00              ZZ=  1.3424E+00
--
 

      LoProp population analysis for root number: 16
      -----------------------------------------------
 
 
++    LoProp analysis:
      ----------------
 
 
 
  Input file to MOLDEN was generated!
 
 
++    Static properties:
      ------------------
 
 
      LoProp Charges per center
 

                   C1       S2       O3       PU4      O5       O6       O7       O8       H9       H10   
      Nuclear      6.0000  16.0000   8.0000  94.0000   8.0000   8.0000   8.0000   8.0000   1.0000   1.0000
      Electronic  -6.4496 -15.0116  -8.8206 -91.5938  -8.4001  -8.8207  -8.9257  -8.9374  -0.8907  -0.8591
 
      Total       -0.4496   0.9884  -0.8206   2.4062  -0.4001  -0.8207  -0.9257  -0.9374   0.1093   0.1409
 

                   H11      O12   
      Nuclear      1.0000   8.0000
      Electronic  -0.8906  -8.4003
 
      Total        0.1094  -0.4003
--
 
 
      Natural Bond Order analysis for root number: 16
 
++    Natural Bond Order analysis
      ---------------------------
      Based on LoProp computed density
      -------------------------------------------------------------------------------------
      Atom A       Atom B       Bond Order | Atom A       Atom B       Bond Order
        C1           S2             1.000  |   PU4          O5             3.999
        C1           H9             0.999  |   PU4          O12            3.999
        C1           H10            1.000  |   O5           O12            1.988
        C1           H11            0.999  |   S2           O3             0.981
        S2           O6             0.981  |
      -------------------------------------------------------------------------------------
      NBO located    109.999 core electrons.
      NBO located     24.928 lone pair electrons.
      NBO located     31.895 electrons involved in    9 bonds.
      The remaining    1.178 electrons are to be considered as diffuse
--
 
--
 
 
  Input file to MOLDEN was generated!
 
 
  Input file to MOLDEN was generated!
 
 
  Input file to MOLDEN was generated!
 
 
  Input file to MOLDEN was generated!
 
 
  Input file to MOLDEN was generated!
 
 
  Input file to MOLDEN was generated!
 
 
  Input file to MOLDEN was generated!
 
 
  Input file to MOLDEN was generated!
 
 
  Input file to MOLDEN was generated!
 
 
  Input file to MOLDEN was generated!
 
 
  Input file to MOLDEN was generated!
 
 
  Input file to MOLDEN was generated!
 
 
  Input file to MOLDEN was generated!
 
 
  Input file to MOLDEN was generated!
 
 
  Input file to MOLDEN was generated!
 
 
  Input file to MOLDEN was generated!
 
 
  Input file to MOLDEN was generated!
 
      Average orbitals are written to the RASORB file
      Natural orbitals for root   1 are written to the RASORB.1 file
      Natural orbitals for root   2 are written to the RASORB.2 file
      Natural orbitals for root   3 are written to the RASORB.3 file
      Natural orbitals for root   4 are written to the RASORB.4 file
      Natural orbitals for root   5 are written to the RASORB.5 file
      Natural orbitals for root   6 are written to the RASORB.6 file
      Natural orbitals for root   7 are written to the RASORB.7 file
      Natural orbitals for root   8 are written to the RASORB.8 file
      Natural orbitals for root   9 are written to the RASORB.9 file
      Natural orbitals for root  10 are written to the RASORB.10 file
      Natural orbitals for root  11 are written to the RASORB.11 file
      Natural orbitals for root  12 are written to the RASORB.12 file
      Natural orbitals for root  13 are written to the RASORB.13 file
      Natural orbitals for root  14 are written to the RASORB.14 file
      Natural orbitals for root  15 are written to the RASORB.15 file
      Natural orbitals for root  16 are written to the RASORB.16 file
      Spin density orbitals for root   1 are written to the SPDORB.1 file
      Spin density orbitals for root   2 are written to the SPDORB.2 file
      Spin density orbitals for root   3 are written to the SPDORB.3 file
      Spin density orbitals for root   4 are written to the SPDORB.4 file
      Spin density orbitals for root   5 are written to the SPDORB.5 file
      Spin density orbitals for root   6 are written to the SPDORB.6 file
      Spin density orbitals for root   7 are written to the SPDORB.7 file
      Spin density orbitals for root   8 are written to the SPDORB.8 file
      Spin density orbitals for root   9 are written to the SPDORB.9 file
      Spin density orbitals for root  10 are written to the SPDORB.10 file
      Spin density orbitals for root  11 are written to the SPDORB.11 file
      Spin density orbitals for root  12 are written to the SPDORB.12 file
      Spin density orbitals for root  13 are written to the SPDORB.13 file
      Spin density orbitals for root  14 are written to the SPDORB.14 file
      Spin density orbitals for root  15 are written to the SPDORB.15 file
      Spin density orbitals for root  16 are written to the SPDORB.16 file
 
 ###############################################################################
 ###############################################################################
 ###                                                                         ###
 ###                                                                         ###
 ###    RunFile label Unique Atom Name                                       ###
 ###    was used       66 times                                              ###
 ###                                                                         ###
 ###                                                                         ###
 ###############################################################################
 ###############################################################################
 ###############################################################################
 ###############################################################################
 ###                                                                         ###
 ###                                                                         ###
 ###    RunFile label LP_L                                                   ###
 ###    was used       48 times                                              ###
 ###                                                                         ###
 ###                                                                         ###
 ###############################################################################
 ###############################################################################
 ###############################################################################
 ###############################################################################
 ###                                                                         ###
 ###                                                                         ###
 ###    RunFile label BirthCertificate                                       ###
 ###    was used       93 times                                              ###
 ###                                                                         ###
 ###                                                                         ###
 ###############################################################################
 ###############################################################################
 ###############################################################################
 ###############################################################################
 ###                                                                         ###
 ###                                                                         ###
 ###    RunFile label Unique Coordinat                                       ###
 ###    was used       82 times                                              ###
 ###                                                                         ###
 ###                                                                         ###
 ###############################################################################
 ###############################################################################
 ###############################################################################
 ###############################################################################
 ###                                                                         ###
 ###                                                                         ###
 ###    RunFile label Center Index                                           ###
 ###    was used       64 times                                              ###
 ###                                                                         ###
 ###                                                                         ###
 ###############################################################################
 ###############################################################################
 ###############################################################################
 ###############################################################################
 ###                                                                         ###
 ###                                                                         ###
 ###    RunFile label nBas                                                   ###
 ###    was used      121 times                                              ###
 ###                                                                         ###
 ###                                                                         ###
 ###############################################################################
 ###############################################################################
 ###############################################################################
 ###############################################################################
 ###                                                                         ###
 ###                                                                         ###
 ###    RunFile label nOrb                                                   ###
 ###    was used       49 times                                              ###
 ###                                                                         ###
 ###                                                                         ###
 ###############################################################################
 ###############################################################################
--- Stop Module: rasscf at Tue Nov 13 21:06:49 2018 /rc=_RC_ALL_IS_WELL_ ---
*** files: PuO2_CH3SO2_O2-m1-quintet.casscf.MB.LprOrb PuO2_CH3SO2_O2-m1-quintet.casscf.MB.rasscf.molden.12 PuO2_CH3SO2_O2-m1-quintet.casscf.MB.rasscf.molden.13
           PuO2_CH3SO2_O2-m1-quintet.casscf.MB.rasscf.molden.6 PuO2_CH3SO2_O2-m1-quintet.casscf.MB.rasscf.molden.5 PuO2_CH3SO2_O2-m1-quintet.casscf.MB.rasscf.molden.8
           PuO2_CH3SO2_O2-m1-quintet.casscf.MB.rasscf.molden.10 PuO2_CH3SO2_O2-m1-quintet.casscf.MB.rasscf.molden.4 PuO2_CH3SO2_O2-m1-quintet.casscf.MB.rasscf.molden.14
           PuO2_CH3SO2_O2-m1-quintet.casscf.MB.rasscf.molden.3 PuO2_CH3SO2_O2-m1-quintet.casscf.MB.rasscf.molden.15 PuO2_CH3SO2_O2-m1-quintet.casscf.MB.rasscf.molden.2
           PuO2_CH3SO2_O2-m1-quintet.casscf.MB.rasscf.molden.9 PuO2_CH3SO2_O2-m1-quintet.casscf.MB.rasscf.molden.7 PuO2_CH3SO2_O2-m1-quintet.casscf.MB.rasscf.molden.16
           PuO2_CH3SO2_O2-m1-quintet.casscf.MB.rasscf.molden.1 PuO2_CH3SO2_O2-m1-quintet.casscf.MB.rasscf.molden.11 PuO2_CH3SO2_O2-m1-quintet.casscf.MB.rasscf.molden
           PuO2_CH3SO2_O2-m1-quintet.casscf.MB.LoProp.molden PuO2_CH3SO2_O2-m1-quintet.casscf.MB.RasOrb.1 PuO2_CH3SO2_O2-m1-quintet.casscf.MB.RasOrb.12
           PuO2_CH3SO2_O2-m1-quintet.casscf.MB.RasOrb.8 PuO2_CH3SO2_O2-m1-quintet.casscf.MB.RasOrb.11 PuO2_CH3SO2_O2-m1-quintet.casscf.MB.RasOrb.10
           PuO2_CH3SO2_O2-m1-quintet.casscf.MB.RasOrb.14 PuO2_CH3SO2_O2-m1-quintet.casscf.MB.RasOrb.7 PuO2_CH3SO2_O2-m1-quintet.casscf.MB.RasOrb.16
           PuO2_CH3SO2_O2-m1-quintet.casscf.MB.RasOrb PuO2_CH3SO2_O2-m1-quintet.casscf.MB.RasOrb.9 PuO2_CH3SO2_O2-m1-quintet.casscf.MB.RasOrb.15
           PuO2_CH3SO2_O2-m1-quintet.casscf.MB.RasOrb.2 PuO2_CH3SO2_O2-m1-quintet.casscf.MB.RasOrb.4 PuO2_CH3SO2_O2-m1-quintet.casscf.MB.RasOrb.5
           PuO2_CH3SO2_O2-m1-quintet.casscf.MB.RasOrb.6 PuO2_CH3SO2_O2-m1-quintet.casscf.MB.RasOrb.3 PuO2_CH3SO2_O2-m1-quintet.casscf.MB.RasOrb.13
           PuO2_CH3SO2_O2-m1-quintet.casscf.MB.rasscf.h5 PuO2_CH3SO2_O2-m1-quintet.casscf.MB.SpdOrb.6 PuO2_CH3SO2_O2-m1-quintet.casscf.MB.SpdOrb.9
           PuO2_CH3SO2_O2-m1-quintet.casscf.MB.SpdOrb.4 PuO2_CH3SO2_O2-m1-quintet.casscf.MB.SpdOrb.10 PuO2_CH3SO2_O2-m1-quintet.casscf.MB.SpdOrb.16
           PuO2_CH3SO2_O2-m1-quintet.casscf.MB.SpdOrb.12 PuO2_CH3SO2_O2-m1-quintet.casscf.MB.SpdOrb.11 PuO2_CH3SO2_O2-m1-quintet.casscf.MB.SpdOrb.8
           PuO2_CH3SO2_O2-m1-quintet.casscf.MB.SpdOrb.13 PuO2_CH3SO2_O2-m1-quintet.casscf.MB.SpdOrb.3 PuO2_CH3SO2_O2-m1-quintet.casscf.MB.SpdOrb.14
           PuO2_CH3SO2_O2-m1-quintet.casscf.MB.SpdOrb.2 PuO2_CH3SO2_O2-m1-quintet.casscf.MB.SpdOrb.1 PuO2_CH3SO2_O2-m1-quintet.casscf.MB.SpdOrb.15
           PuO2_CH3SO2_O2-m1-quintet.casscf.MB.SpdOrb.7 PuO2_CH3SO2_O2-m1-quintet.casscf.MB.SpdOrb.5 xmldump
    saved to directory /home/vallet/John-methylsulfonyl/PuO2_CH3SO2_O2-m1/quintet-geom/optg-freq-pbe0/SO-XMS
--- Module rasscf spent 26 seconds ---

>>> COPY PuO2_CH3SO2_O2-m1-quintet.casscf.MB.RasOrb /home/vallet/John-methylsulfonyl/PuO2_CH3SO2_O2-m1/quintet-geom/optg-freq-pbe0/SO-XMS/PuO2_CH3SO2_O2-m1-quintet.casscf.MB.RasOrb_singlets

>>> COPY PuO2_CH3SO2_O2-m1-quintet.casscf.MB.rasscf.molden /home/vallet/John-methylsulfonyl/PuO2_CH3SO2_O2-m1/quintet-geom/optg-freq-pbe0/SO-XMS/PuO2_CH3SO2_O2-m1-quintet.casscf.MB.rasscf_singlets.molden

    Timing: Wall=304.02 User=1995.31 System=65.30
