
 Primary working directories    : /state/partition2/vallet/537213.phlam-s-sakura
 Secondary working directories  : /state/partition2/vallet/537213.phlam-s-sakura
 Wavefunction directory         : /home/vallet/wfu/
 Main file repository           : /state/partition2/vallet/537213.phlam-s-sakura/

 SHA1      : 5e3d8ac6839c721e2824de82269b4736200146bd
 NAME      : 2015.1.37
 ARCHNAME  : linux/x86_64
 FC        : /opt/intel/composer_xe_2015.1.133/bin/intel64/ifort
 BLASLIB   : -Wl,-_start-group /opt/intel/mkl/lib/intel64/libmkl_intel_ilp64.a /opt/intel/mkl/lib/intel64/libmkl_intel_thread.a /opt/intel/mkl/lib/intel64/libmkl_core.a -Wl,-_end-group
 id        : lill

 Nodes      nprocs
 u-0-3.local    8

 Using customized tuning parameters: mindgm=1; mindgv=20; mindgc=4; mindgr=1; noblas=0; minvec=7
 default implementation of scratch files=sf  

  memory,1000,m;
  file, 1, CH3.CCSD-T-CBS.int, new;
  file, 2, CH3.CCSD-T-CBS.wfu, new;
 
 geometry={
 4
 Energy = -39.79942409830
 C    -0.0000000    0.0000000    0.0000000
 H    -0.5396777    0.9347491    0.0000000
 H    -0.5396777   -0.9347491    0.0000000
 H     1.0793553    0.0000000    0.0000000
 }
 
 basis={
   default,aug-cc-pVTZ;
 }
 {cfit,basis_coul=mycoul,basis_exch=myexch}
 
 charge=0;
 spin=1;
 
 hf;
 uccsd(t);
 
 ehf(1) = ENERGR(1);
 ecor_ccsdt(1) = ENERGY(1)-ENERGR(1);
 ecor_mp2(1) = EMP2(1)-ENERGR(1);
 
 basis={
   default,aug-cc-pVQZ;
 }
 {cfit,basis_coul=mycoul,basis_exch=myexch}
 
 hf;
 uccsd(t);
 ehf(2) = ENERGR(1);
 ecor_ccsdt(2) = ENERGY(1)-ENERGR(1);
 ecor_mp2(2) = EMP2(1)-ENERGR(1);
 
 extrapolate, basis=avtz:avqz, eref=ehf, ecorr=ecor_ccsdt, method_r=km, method_c=LH4;
 extrapolate, basis=avtz:avqz, eref=ehf, ecorr=ecor_mp2, method_r=km, method_c=LH4;

 Variables initialized (889), CPU time= 0.06 sec
 Commands  initialized (702), CPU time= 0.02 sec, 572 directives.
 Default parameters read. Elapsed time= 0.55 sec

 Checking input...
 Passed
1


                                         ***  PROGRAM SYSTEM MOLPRO  ***
                                       Copyright, TTI GmbH Stuttgart, 2015
                                    Version 2015.1 linked Aug 10 2018 15:00:15


 **********************************************************************************************************************************
 LABEL *                                                                                 
  64 bit mpp version                                                                     DATE: 28-Jan-19          TIME: 16:55:14  
 **********************************************************************************************************************************

 SHA1:             5e3d8ac6839c721e2824de82269b4736200146bd
 **********************************************************************************************************************************

 Variable memory set to 1000000000 words,  buffer space   230000 words



 Permanent file  1  ch3.ccsd-t-cbs.int               assigned.  Implementation=df  
 Permanent file  2  ch3.ccsd-t-cbs.wfu               assigned.  Implementation=df  
 


 **********************************************************************************************************************************
 DATASETS  * FILE   NREC   LENGTH (MB)   RECORD NAMES
              1       1        0.03       500   
                                          VAR  

              2       1        0.03       500   
                                          VAR  

 PROGRAMS   *        TOTAL      FILE
 CPU TIMES  *         0.42      0.00
 REAL TIME  *         0.78 SEC
 DISK USED  *         0.26 MB      
 **********************************************************************************************************************************

Geometry recognized as XYZ

 SETTING BASIS          =    AUG-CC-PVTZ
 SETTING CHARGE         =     0.00000000D+00                                  
 SETTING SPIN           =         1.00000000                                  


 Recomputing integrals since basis changed


 Using spherical harmonics

 Library entry C      S aug-cc-pVTZ          selected for orbital group  1
 Library entry C      P aug-cc-pVTZ          selected for orbital group  1
 Library entry C      D aug-cc-pVTZ          selected for orbital group  1
 Library entry C      F aug-cc-pVTZ          selected for orbital group  1
 Library entry H      S aug-cc-pVTZ          selected for orbital group  2
 Library entry H      P aug-cc-pVTZ          selected for orbital group  2
 Library entry H      D aug-cc-pVTZ          selected for orbital group  2


 PROGRAM * SEWARD (Integral evaluation for generally contracted gaussian basis sets)     Author: Roland Lindh, 1990

 Geometry written to block  1 of record 700


 Point group  C2v 



 ATOMIC COORDINATES

 NR  ATOM    CHARGE       X              Y              Z

   1  C       6.00    0.000000000    0.000000000    0.000000000
   2  H       1.00   -1.019843049    1.766419794    0.000000000
   3  H       1.00   -1.019843049   -1.766419794    0.000000000
   4  H       1.00    2.039685908    0.000000000    0.000000000

 Bond lengths in Bohr (Angstrom)

 1-2  2.039685940  1-3  2.039685940  1-4  2.039685908
     ( 1.079355317)     ( 1.079355317)     ( 1.079355300)

 Bond angles

  2-1-3  119.99999490   2-1-4  120.00000255   3-1-4  120.00000255

 NUCLEAR CHARGE:                    9
 NUMBER OF PRIMITIVE AOS:         148
 NUMBER OF SYMMETRY AOS:          133
 NUMBER OF CONTRACTIONS:          115   (  46A1  +  32B1  +  23B2  +  14A2  )
 NUMBER OF CORE ORBITALS:           1   (   1A1  +   0B1  +   0B2  +   0A2  )
 NUMBER OF VALENCE ORBITALS:        7   (   4A1  +   2B1  +   1B2  +   0A2  )


 NUCLEAR REPULSION ENERGY    9.67406331


 Eigenvalues of metric

         1 0.999E-04 0.124E-03 0.919E-03 0.103E-02 0.192E-02 0.301E-02 0.701E-02 0.713E-02
         2 0.999E-04 0.919E-03 0.192E-02 0.461E-02 0.701E-02 0.739E-02 0.933E-02 0.125E-01
         3 0.516E-02 0.811E-02 0.163E-01 0.228E-01 0.672E-01 0.857E-01 0.181E+00 0.192E+00
         4 0.811E-02 0.163E-01 0.672E-01 0.192E+00 0.272E+00 0.319E+00 0.379E+00 0.620E+00


 Contracted 2-electron integrals neglected if value below      1.0D-11
 AO integral compression algorithm  1   Integral accuracy      1.0D-11

     36.176 MB (compressed) written to integral file ( 58.8%)

     Node minimum: 3.670 MB, node maximum: 4.981 MB


 NUMBER OF SORTED TWO-ELECTRON INTEGRALS:     729343.     BUFFER LENGTH:  32768
 NUMBER OF SEGMENTS:   1  SEGMENT LENGTH:     729343      RECORD LENGTH: 524288

 Memory used in sort:       1.29 MW

 SORT1 READ     7856973. AND WROTE      706639. INTEGRALS IN      3 RECORDS. CPU TIME:     0.44 SEC, REAL TIME:     0.54 SEC
 SORT2 READ     5649441. AND WROTE     5828551. INTEGRALS IN    136 RECORDS. CPU TIME:     0.06 SEC, REAL TIME:     0.08 SEC

 Node minimum:      724183.  Node maximum:      739548. integrals

 OPERATOR DM      FOR CENTER  0  COORDINATES:    0.000000    0.000000    0.000000


 **********************************************************************************************************************************
 DATASETS  * FILE   NREC   LENGTH (MB)   RECORD NAMES
              1      18       20.08       500      610      700      900      950      970     1000      129      960     1100   
                                          VAR    BASINP    GEOM    SYMINP    ZMAT    AOBASIS   BASIS     P2S    ABASIS      S 
                                         1400     1410     1200     1210     1080     1600     1650     1700   
                                           T        V       H0       H01     AOSYM     SMH    MOLCAS    OPER   

              2       5        2.26       500      610      700     1000      520   
                                          VAR    BASINP    GEOM     BASIS   MCVARS    

 PROGRAMS   *        TOTAL       INT      FILE
 CPU TIMES  *         1.52      1.10      0.00
 REAL TIME  *         2.85 SEC
 DISK USED  *       129.02 MB      
 GA USED    *         0.00 MB       (max)       0.00 MB       (current)
 **********************************************************************************************************************************


 PROGRAM * RHF-SCF (OPEN SHELL)       Authors: W. Meyer, H.-J. Werner


 NUMBER OF ELECTRONS:       5+    4-
 CONVERGENCE THRESHOLDS:    1.00E-05 (Density)    1.00E-07 (Energy)
 MAX. NUMBER OF ITERATIONS:       60
 INTERPOLATION TYPE:            DIIS
 INTERPOLATION STEPS:              2 (START)      1 (STEP)
 LEVEL SHIFTS:                 -0.60 (CLOSED) -0.30 (OPEN) 



 Orbital guess generated from atomic densities. Full valence occupancy:    5   2   1   0

 Molecular orbital dump at record        2100.2

 Initial alpha occupancy:   3   1   1   0
 Initial beta  occupancy:   3   1   0   0
 Wave function symmetry:    3

 ITERATION    DDIFF          GRAD             ENERGY        2-EL.EN.            DIPOLE MOMENTS         DIIS   ORB.
    1      0.000D+00      0.000D+00       -39.56612966     44.627061   -0.00000    0.00000    0.00000    0    start
    2      0.000D+00      0.474D-02       -39.57150102     44.585992   -0.00000    0.00000    0.00000    1    diag,B
    3      0.610D-02      0.212D-02       -39.57322311     44.631015   -0.00000    0.00000    0.00000    2    diag,B
    4      0.354D-02      0.591D-03       -39.57339660     44.642156   -0.00000    0.00000    0.00000    3    diag,B
    5      0.858D-03      0.166D-03       -39.57341191     44.641772   -0.00000    0.00000    0.00000    4    diag,B
    6      0.264D-03      0.468D-04       -39.57341331     44.641259   -0.00000    0.00000    0.00000    5    diag,B
    7      0.105D-03      0.116D-04       -39.57341342     44.641337   -0.00000    0.00000    0.00000    6    fixocc
    8      0.429D-04      0.362D-05       -39.57341343     44.641395   -0.00000    0.00000    0.00000    7    diag,B
    9      0.176D-04      0.120D-05       -39.57341343     44.641435   -0.00000    0.00000    0.00000    8    diag,B
   10      0.355D-05      0.360D-06       -39.57341343     44.641440   -0.00000    0.00000    0.00000    0    orth

 Final alpha occupancy:   3   1   1   0
 Final beta  occupancy:   3   1   0   0

 !RHF STATE 1.3 Energy                -39.573413434298
 Nuclear energy                         9.67406331
 One-electron energy                  -71.56819682
 Two-electron energy                   22.32072008
 Virial quotient                       -1.00158118
 !RHF STATE 1.3 Dipole moment          -0.00000000     0.00000000     0.00000000
 Dipole moment /Debye                  -0.00000001     0.00000000     0.00000000

 Orbital energies:

         1.1          2.1          3.1          4.1          5.1
    -11.226053    -0.901475    -0.574428     0.030628     0.048055

         1.2          2.2          3.2
     -0.574428     0.048055     0.130868

         1.3          2.3          3.3
     -0.373992     0.093978     0.268282

         1.4          2.4
      0.268282     0.399924

 HOMO      1.3    -0.373992 =     -10.1769eV
 LUMO      4.1     0.030628 =       0.8334eV
 LUMO-HOMO         0.404621 =      11.0103eV


 **********************************************************************************************************************************
 DATASETS  * FILE   NREC   LENGTH (MB)   RECORD NAMES
              1      18       20.09       500      610      700      900      950      970     1000      129      960     1100   
                                          VAR    BASINP    GEOM    SYMINP    ZMAT    AOBASIS   BASIS     P2S    ABASIS      S 
                                         1400     1410     1200     1210     1080     1600     1650     1700   
                                           T        V       H0       H01     AOSYM     SMH    MOLCAS    OPER   

              2       6        4.89       500      610      700     1000      520     2100   
                                          VAR    BASINP    GEOM     BASIS   MCVARS     RHF  

 PROGRAMS   *        TOTAL        HF       INT      FILE
 CPU TIMES  *         1.73      0.21      1.10      0.00
 REAL TIME  *         3.21 SEC
 DISK USED  *       333.37 MB      
 SF USED    *         0.02 MB      
 GA USED    *         0.00 MB       (max)       0.00 MB       (current)
 **********************************************************************************************************************************


 PROGRAM * CCSD (Unrestricted open-shell coupled cluster)     Authors: C. Hampel, H.-J. Werner, 1991, M. Deegan, P.J. Knowles, 1992


 Convergence thresholds:  THRVAR = 1.00D-08  THRDEN = 1.00D-06

 CCSD(T)     terms to be evaluated (factor= 1.000)


 Number of core orbitals:           1 (   1   0   0   0 )
 Number of closed-shell orbitals:   3 (   2   1   0   0 )
 Number of active  orbitals:        1 (   0   0   1   0 )
 Number of external orbitals:     110 (  43  31  22  14 )

 Memory could be reduced to 4.14 Mwords without degradation in triples

 Number of N-1 electron functions:               7
 Number of N-2 electron functions:              21
 Number of singly external CSFs:               257
 Number of doubly external CSFs:             53442
 Total number of CSFs:                       53699

 Molecular orbitals read from record     2100.2  Type=RHF/CANONICAL (state 1.3)

 Integral transformation finished. Total CPU:   0.14 sec, npass=  1  Memory used:   0.43 MW

 Starting RMP2 calculation

 ITER.      SQ.NORM     CORR.ENERGY   TOTAL ENERGY   ENERGY CHANGE        DEN1      VAR(S)    VAR(P)  DIIS     TIME
   1      1.05143180    -0.16473106   -39.73814449    -0.16473106    -0.00055208  0.83D-05  0.21D-03  1  1     0.18
   2      1.05194152    -0.16532404   -39.73873747    -0.00059298    -0.00000058  0.18D-07  0.25D-06  2  2     0.19
   3      1.05195237    -0.16533090   -39.73874433    -0.00000686    -0.00000000  0.53D-10  0.64D-09  3  3     0.19
   4      1.05195245    -0.16533090   -39.73874433     0.00000000    -0.00000000  0.22D-12  0.17D-11  4  4     0.20

 Norm of t1 vector:      0.03992461      S-energy:    -0.00262335      T1 diagnostic:  0.00011244
 Norm of t2 vector:      0.22440695      P-energy:    -0.16270755
                                         Alpha-Beta:  -0.13245500
                                         Alpha-Alpha: -0.02218834
                                         Beta-Beta:   -0.00806421

 Spin contamination <S**2-Sz**2-Sz>     0.00402663
  Reference energy                    -39.573413434298
  RHF-RMP2 correlation energy          -0.165330899140
 !RHF-RMP2 energy                     -39.738744333438

 Starting UCCSD calculation

 ITER.      SQ.NORM     CORR.ENERGY   TOTAL ENERGY   ENERGY CHANGE        DEN1      VAR(S)    VAR(P)  DIIS     TIME
   1      1.06193066    -0.17782536   -39.75123879    -0.17782536    -0.00552505  0.29D-03  0.16D-02  1  1     0.39
   2      1.06870910    -0.18428837   -39.75770181    -0.00646301    -0.00021761  0.20D-04  0.70D-04  2  2     0.41
   3      1.07009282    -0.18497767   -39.75839110    -0.00068930    -0.00001921  0.18D-05  0.75D-05  3  3     0.44
   4      1.07049914    -0.18513307   -39.75854650    -0.00015540    -0.00000273  0.13D-06  0.13D-05  4  4     0.47
   5      1.07062579    -0.18516408   -39.75857751    -0.00003101    -0.00000032  0.87D-08  0.15D-06  5  5     0.54
   6      1.07064433    -0.18516407   -39.75857750     0.00000001    -0.00000003  0.55D-08  0.10D-07  6  6     0.61
   7      1.07064650    -0.18516489   -39.75857833    -0.00000082    -0.00000000  0.14D-08  0.90D-09  6  1     0.68

 Norm of t1 vector:      0.05401210      S-energy:    -0.00307762      T1 diagnostic:  0.00557279
                                                                       D1 diagnostic:  0.00917027
 Norm of t2 vector:      0.26024833      P-energy:    -0.18208727
                                         Alpha-Beta:  -0.15188159
                                         Alpha-Alpha: -0.02257009
                                         Beta-Beta:   -0.00763559

 Spin contamination <S**2-Sz**2-Sz>     0.00164587

 Memory could be reduced to 4.22 Mwords without degradation in triples
 

 RESULTS
 =======

  Reference energy                    -39.573413434298
  UCCSD singles energy                 -0.003077619051
  UCCSD pair energy                    -0.182087273049
  UCCSD correlation energy             -0.185164892100
  Triples (T) contribution             -0.005065437467
  Total correlation energy             -0.190230329567
 
  RHF-UCCSD energy                    -39.758578326398
  RHF-UCCSD[T] energy                 -39.763708126112
  RHF-UCCSD-T energy                  -39.763604512757
 !RHF-UCCSD(T) energy                 -39.763643763864

 Program statistics:

 Available memory in ccsd:               999999732
 Min. memory needed in ccsd:                247030
 Max. memory used in ccsd:                  300495
 Max. memory used in cckext:                310790 ( 7 integral passes)
 Max. memory used in cckint:                430536 ( 1 integral passes)



 **********************************************************************************************************************************
 DATASETS  * FILE   NREC   LENGTH (MB)   RECORD NAMES
              1      18       20.09       500      610      700      900      950      970     1000      129      960     1100   
                                          VAR    BASINP    GEOM    SYMINP    ZMAT    AOBASIS   BASIS     P2S    ABASIS      S 
                                         1400     1410     1200     1210     1080     1600     1650     1700   
                                           T        V       H0       H01     AOSYM     SMH    MOLCAS    OPER   

              2       6        4.89       500      610      700     1000      520     2100   
                                          VAR    BASINP    GEOM     BASIS   MCVARS     RHF  

 PROGRAMS   *        TOTAL  UCCSD(T)        HF       INT      FILE
 CPU TIMES  *         2.79      1.05      0.21      1.10      0.00
 REAL TIME  *         4.80 SEC
 DISK USED  *       381.38 MB      
 SF USED    *        40.62 MB      
 GA USED    *         0.00 MB       (max)       0.00 MB       (current)
 **********************************************************************************************************************************
 SETTING EHF(1)         =       -39.57341343  AU                              
 SETTING ECOR_CCSDT(1)  =        -0.19023033  AU                              
 SETTING ECOR_MP2(1)    =        -0.16533090  AU                              
 SETTING BASIS          =    AUG-CC-PVQZ


 Recomputing integrals since basis changed


 Using spherical harmonics

 Library entry C      S aug-cc-pVQZ          selected for orbital group  1
 Library entry C      P aug-cc-pVQZ          selected for orbital group  1
 Library entry C      D aug-cc-pVQZ          selected for orbital group  1
 Library entry C      F aug-cc-pVQZ          selected for orbital group  1
 Library entry C      G aug-cc-pVQZ          selected for orbital group  1
 Library entry H      S aug-cc-pVQZ          selected for orbital group  2
 Library entry H      P aug-cc-pVQZ          selected for orbital group  2
 Library entry H      D aug-cc-pVQZ          selected for orbital group  2
 Library entry H      F aug-cc-pVQZ          selected for orbital group  2


 PROGRAM * SEWARD (Integral evaluation for generally contracted gaussian basis sets)     Author: Roland Lindh, 1990

 Geometry written to block  1 of record 700


 Point group  C2v 



 ATOMIC COORDINATES

 NR  ATOM    CHARGE       X              Y              Z

   1  C       6.00    0.000000000    0.000000000    0.000000000
   2  H       1.00   -1.019843049    1.766419794    0.000000000
   3  H       1.00   -1.019843049   -1.766419794    0.000000000
   4  H       1.00    2.039685908    0.000000000    0.000000000

 Bond lengths in Bohr (Angstrom)

 1-2  2.039685940  1-3  2.039685940  1-4  2.039685908
     ( 1.079355317)     ( 1.079355317)     ( 1.079355300)

 Bond angles

  2-1-3  119.99999490   2-1-4  120.00000255   3-1-4  120.00000255

 NUCLEAR CHARGE:                    9
 NUMBER OF PRIMITIVE AOS:         289
 NUMBER OF SYMMETRY AOS:          237
 NUMBER OF CONTRACTIONS:          218   (  80A1  +  60B1  +  46B2  +  32A2  )
 NUMBER OF CORE ORBITALS:           1   (   1A1  +   0B1  +   0B2  +   0A2  )
 NUMBER OF VALENCE ORBITALS:        7   (   4A1  +   2B1  +   1B2  +   0A2  )


 NUCLEAR REPULSION ENERGY    9.67406331


 Eigenvalues of metric

         1 0.269E-04 0.375E-04 0.149E-03 0.166E-03 0.329E-03 0.445E-03 0.764E-03 0.859E-03
         2 0.375E-04 0.149E-03 0.329E-03 0.764E-03 0.102E-02 0.115E-02 0.139E-02 0.347E-02
         3 0.685E-03 0.157E-02 0.421E-02 0.473E-02 0.754E-02 0.909E-02 0.125E-01 0.215E-01
         4 0.157E-02 0.421E-02 0.909E-02 0.125E-01 0.160E-01 0.288E-01 0.564E-01 0.799E-01


 Contracted 2-electron integrals neglected if value below      1.0D-12
 AO integral compression algorithm  1   Integral accuracy      1.0D-12

     498.074 MB (compressed) written to integral file ( 66.6%)

     Node minimum: 50.070 MB, node maximum: 67.633 MB


 NUMBER OF SORTED TWO-ELECTRON INTEGRALS:    9094704.     BUFFER LENGTH:  32768
 NUMBER OF SEGMENTS:   1  SEGMENT LENGTH:    9094704      RECORD LENGTH: 524288

 Memory used in sort:       9.65 MW

 SORT1 READ    93375478. AND WROTE     8828131. INTEGRALS IN     26 RECORDS. CPU TIME:     4.10 SEC, REAL TIME:     5.18 SEC
 SORT2 READ    70677021. AND WROTE    72819856. INTEGRALS IN   1960 RECORDS. CPU TIME:     0.35 SEC, REAL TIME:     0.64 SEC

 Node minimum:     9093870.  Node maximum:     9116702. integrals

 OPERATOR DM      FOR CENTER  0  COORDINATES:    0.000000    0.000000    0.000000


 **********************************************************************************************************************************
 DATASETS  * FILE   NREC   LENGTH (MB)   RECORD NAMES
              1      18       20.45       500      610      700      900      950      970     1001      129      960     1100   
                                          VAR    BASINP    GEOM    SYMINP    ZMAT    AOBASIS   BASIS     P2S    ABASIS      S 
                                         1400     1410     1200     1210     1080     1600     1650     1700   
                                           T        V       H0       H01     AOSYM     SMH    MOLCAS    OPER   

              2       7        4.99       500      610      700     1000      520     2100     1001   
                                          VAR    BASINP    GEOM     BASIS   MCVARS     RHF     BASIS   

 PROGRAMS   *        TOTAL       INT  UCCSD(T)        HF       INT      FILE
 CPU TIMES  *         9.68      6.87      1.05      0.21      1.10      0.00
 REAL TIME  *        13.50 SEC
 DISK USED  *         1.60 GB      
 SF USED    *        40.62 MB      
 GA USED    *         0.00 MB       (max)       0.00 MB       (current)
 **********************************************************************************************************************************


 PROGRAM * RHF-SCF (OPEN SHELL)       Authors: W. Meyer, H.-J. Werner


 NUMBER OF ELECTRONS:       5+    4-
 CONVERGENCE THRESHOLDS:    1.00E-05 (Density)    1.00E-07 (Energy)
 MAX. NUMBER OF ITERATIONS:       60
 INTERPOLATION TYPE:            DIIS
 INTERPOLATION STEPS:              2 (START)      1 (STEP)
 LEVEL SHIFTS:                 -0.60 (CLOSED) -0.30 (OPEN) 



 Molecular orbitals read from record     2100.2  Type=RHF/CANONICAL (state 1.3)
 
 Present basis size:      80  60  46  32
 Previous basis size:     46  32  23  14
 Previous occupation:      3   1   1   0
 Previous closed-shells:   3   1   0   0
 Previous core-orbitals:   1   0   0   0
 Present occupation:       3   1   1   0
 Present closed-shells:    3   1   0   0
 Present core-orbitals:    1   0   0   0
 Wavefunction symmetry:    3   Doublet 

 Orbital overlap <old|new>:  < 1.1| 1.1> = 0.999999   < 2.1| 2.1> = 0.999996   < 3.1| 3.1> = 0.999991   < 1.2| 1.2> = 0.999991
                             < 1.3| 1.3> = 0.999982

 Molecular orbital dump at record        2101.2

 ITERATION    DDIFF          GRAD             ENERGY        2-EL.EN.            DIPOLE MOMENTS         DIIS   ORB.
    1      0.000D+00      0.000D+00       -39.57549077     44.641335   -0.00000    0.00000    0.00000    0    start
    2      0.000D+00      0.206D-02       -39.57579878     44.649341   -0.00000    0.00000    0.00000    1    diag,B
    3      0.422D-02      0.225D-03       -39.57580622     44.649112   -0.00000    0.00000    0.00000    2    diag,B
    4      0.180D-02      0.285D-04       -39.57580663     44.649240   -0.00000    0.00000    0.00000    3    diag,B
    5      0.755D-03      0.674D-05       -39.57580667     44.649368   -0.00000    0.00000    0.00000    4    diag,B
    6      0.253D-03      0.173D-05       -39.57580667     44.649422   -0.00000    0.00000    0.00000    5    diag,B
    7      0.608D-04      0.439D-06       -39.57580667     44.649439   -0.00000    0.00000    0.00000    6    diag,B
    8      0.629D-05      0.156D-06       -39.57580667     44.649443   -0.00000    0.00000    0.00000    0    orth

 Final alpha occupancy:   3   1   1   0
 Final beta  occupancy:   3   1   0   0

 !RHF STATE 1.3 Energy                -39.575806674160
 Nuclear energy                         9.67406331
 One-electron energy                  -71.57459164
 Two-electron energy                   22.32472166
 Virial quotient                       -1.00123603
 !RHF STATE 1.3 Dipole moment          -0.00000000     0.00000000     0.00000000
 Dipole moment /Debye                  -0.00000001     0.00000000     0.00000000

 Orbital energies:

         1.1          2.1          3.1          4.1          5.1
    -11.224976    -0.901355    -0.574570     0.027606     0.043336

         1.2          2.2          3.2
     -0.574570     0.043336     0.117755

         1.3          2.3          3.3
     -0.374208     0.079434     0.216464

         1.4          2.4
      0.216464     0.301339

 HOMO      1.3    -0.374208 =     -10.1827eV
 LUMO      4.1     0.027606 =       0.7512eV
 LUMO-HOMO         0.401814 =      10.9339eV


 **********************************************************************************************************************************
 DATASETS  * FILE   NREC   LENGTH (MB)   RECORD NAMES
              1      18       20.47       500      610      700      900      950      970     1001      129      960     1100   
                                          VAR    BASINP    GEOM    SYMINP    ZMAT    AOBASIS   BASIS     P2S    ABASIS      S 
                                         1400     1410     1200     1210     1080     1600     1650     1700   
                                           T        V       H0       H01     AOSYM     SMH    MOLCAS    OPER   

              2       8        7.85       500      610      700     1000      520     2100     1001     2101   
                                          VAR    BASINP    GEOM     BASIS   MCVARS     RHF     BASIS     RHF  

 PROGRAMS   *        TOTAL        HF       INT  UCCSD(T)        HF       INT      FILE
 CPU TIMES  *        10.39      0.66      6.87      1.05      0.21      1.10      0.00
 REAL TIME  *        14.46 SEC
 DISK USED  *         1.60 GB      
 SF USED    *        40.62 MB      
 GA USED    *         0.00 MB       (max)       0.00 MB       (current)
 **********************************************************************************************************************************


 PROGRAM * CCSD (Unrestricted open-shell coupled cluster)     Authors: C. Hampel, H.-J. Werner, 1991, M. Deegan, P.J. Knowles, 1992


 Convergence thresholds:  THRVAR = 1.00D-08  THRDEN = 1.00D-06

 CCSD(T)     terms to be evaluated (factor= 1.000)


 Number of core orbitals:           1 (   1   0   0   0 )
 Number of closed-shell orbitals:   3 (   2   1   0   0 )
 Number of active  orbitals:        1 (   0   0   1   0 )
 Number of external orbitals:     213 (  77  59  45  32 )

 Memory could be reduced to 26.31 Mwords without degradation in triples

 Number of N-1 electron functions:               7
 Number of N-2 electron functions:              21
 Number of singly external CSFs:               472
 Number of doubly external CSFs:            195380
 Total number of CSFs:                      195852

 Molecular orbitals read from record     2101.2  Type=RHF/CANONICAL (state 1.3)

 Integral transformation finished. Total CPU:   0.73 sec, npass=  1  Memory used:   2.06 MW

 Starting RMP2 calculation

 ITER.      SQ.NORM     CORR.ENERGY   TOTAL ENERGY   ENERGY CHANGE        DEN1      VAR(S)    VAR(P)  DIIS     TIME
   1      1.05229010    -0.17389497   -39.74970164    -0.17389497    -0.00055168  0.84D-05  0.21D-03  1  1     0.81
   2      1.05279827    -0.17448703   -39.75029371    -0.00059206    -0.00000060  0.18D-07  0.26D-06  2  2     0.83
   3      1.05280944    -0.17449418   -39.75030086    -0.00000715    -0.00000000  0.54D-10  0.66D-09  3  3     0.85
   4      1.05280953    -0.17449418   -39.75030086     0.00000000    -0.00000000  0.25D-12  0.19D-11  4  4     0.88

 Norm of t1 vector:      0.03998156      S-energy:    -0.00263801      T1 diagnostic:  0.00011411
 Norm of t2 vector:      0.22629848      P-energy:    -0.17185617
                                         Alpha-Beta:  -0.14070925
                                         Alpha-Alpha: -0.02285883
                                         Beta-Beta:   -0.00828809

 Spin contamination <S**2-Sz**2-Sz>     0.00397471
  Reference energy                    -39.575806674160
  RHF-RMP2 correlation energy          -0.174494181851
 !RHF-RMP2 energy                     -39.750300856010

 Starting UCCSD calculation

 ITER.      SQ.NORM     CORR.ENERGY   TOTAL ENERGY   ENERGY CHANGE        DEN1      VAR(S)    VAR(P)  DIIS     TIME
   1      1.06194240    -0.18477210   -39.76057878    -0.18477210    -0.00547206  0.35D-03  0.15D-02  1  1     1.18
   2      1.06847228    -0.19105254   -39.76685921    -0.00628044    -0.00023952  0.23D-04  0.75D-04  2  2     1.50
   3      1.06988819    -0.19182987   -39.76763654    -0.00077733    -0.00002512  0.23D-05  0.95D-05  3  3     1.74
   4      1.07035120    -0.19200714   -39.76781381    -0.00017727    -0.00000321  0.17D-06  0.15D-05  4  4     2.07
   5      1.07049631    -0.19204431   -39.76785098    -0.00003717    -0.00000036  0.76D-08  0.18D-06  5  5     2.35
   6      1.07052010    -0.19204697   -39.76785365    -0.00000266    -0.00000003  0.54D-08  0.14D-07  6  6     2.63
   7      1.07052210    -0.19204719   -39.76785386    -0.00000021    -0.00000000  0.15D-08  0.12D-08  6  1     2.94

 Norm of t1 vector:      0.05422798      S-energy:    -0.00306722      T1 diagnostic:  0.00598358
                                                                       D1 diagnostic:  0.00995671
 Norm of t2 vector:      0.25996428      P-energy:    -0.18897997
                                         Alpha-Beta:  -0.15801312
                                         Alpha-Alpha: -0.02313936
                                         Beta-Beta:   -0.00782749

 Spin contamination <S**2-Sz**2-Sz>     0.00168620

 Memory could be reduced to 26.65 Mwords without degradation in triples
 

 RESULTS
 =======

  Reference energy                    -39.575806674160
  UCCSD singles energy                 -0.003067219783
  UCCSD pair energy                    -0.188979968671
  UCCSD correlation energy             -0.192047188454
  Triples (T) contribution             -0.005465174071
  Total correlation energy             -0.197512362525
 
  RHF-UCCSD energy                    -39.767853862613
  RHF-UCCSD[T] energy                 -39.773397725131
  RHF-UCCSD-T energy                  -39.773281452913
 !RHF-UCCSD(T) energy                 -39.773319036685

 Program statistics:

 Available memory in ccsd:               999999732
 Min. memory needed in ccsd:                876560
 Max. memory used in ccsd:                 1074424
 Max. memory used in cckext:               1188110 ( 7 integral passes)
 Max. memory used in cckint:               2062782 ( 1 integral passes)



 **********************************************************************************************************************************
 DATASETS  * FILE   NREC   LENGTH (MB)   RECORD NAMES
              1      18       20.47       500      610      700      900      950      970     1001      129      960     1100   
                                          VAR    BASINP    GEOM    SYMINP    ZMAT    AOBASIS   BASIS     P2S    ABASIS      S 
                                         1400     1410     1200     1210     1080     1600     1650     1700   
                                           T        V       H0       H01     AOSYM     SMH    MOLCAS    OPER   

              2       8        7.85       500      610      700     1000      520     2100     1001     2101   
                                          VAR    BASINP    GEOM     BASIS   MCVARS     RHF     BASIS     RHF  

 PROGRAMS   *        TOTAL  UCCSD(T)        HF       INT  UCCSD(T)        HF       INT      FILE
 CPU TIMES  *        16.01      5.61      0.66      6.87      1.05      0.21      1.10      0.00
 REAL TIME  *        21.73 SEC
 DISK USED  *         1.76 GB      
 SF USED    *       263.41 MB      
 GA USED    *         0.00 MB       (max)       0.00 MB       (current)
 **********************************************************************************************************************************
 SETTING EHF(2)         =       -39.57580667  AU                              
 SETTING ECOR_CCSDT(2)  =        -0.19751236  AU                              
 SETTING ECOR_MP2(2)    =        -0.17449418  AU                              

 
 Extrapolating energy using  ECORR and basissets AVTZ AVQZ

 *** Long output written to logfile /home/vallet/John-methylsulfonyl/Units/CH3/optg-freq-pbe0/CCSD-T/CH3.CCSD-T-CBS.log ***


 Extrapolating reference energy using E(n)=ECBS+A*(l+1)*exp(-9*sqrt(l))

 E(CBS)=   -39.57610882  A= 0.396772D+04

 Extrapolating correlation energy using function (n+ 0.5)^{-X} with X= 4.0
 
 L=3  E=    -0.19023033  EFIT=    -0.19023033
 L=4  E=    -0.19751236  EFIT=    -0.19751236

 E(CBS)=    -0.20171529  Coefficients:    1.7235

 BASIS           EREF            ECORR           ETOT
 AVTZ        -39.57341343     -0.19023033    -39.76364376
 AVQZ        -39.57580667     -0.19751236    -39.77331904
 CBS         -39.57610882     -0.20171529    -39.77782410
 


 **********************************************************************************************************************************
 DATASETS  * FILE   NREC   LENGTH (MB)   RECORD NAMES
              1      18       20.47       500      610      700      900      950      970     1001      129      960     1100   
                                          VAR    BASINP    GEOM    SYMINP    ZMAT    AOBASIS   BASIS     P2S    ABASIS      S 
                                         1400     1410     1200     1210     1080     1600     1650     1700   
                                           T        V       H0       H01     AOSYM     SMH    MOLCAS    OPER   

              2       8        7.85       500      610      700     1000      520     2100     1001     2101   
                                          VAR    BASINP    GEOM     BASIS   MCVARS     RHF     BASIS     RHF  

 PROGRAMS   *        TOTAL  EXTRAPOL  UCCSD(T)        HF       INT  UCCSD(T)        HF       INT      FILE
 CPU TIMES  *        16.04      0.01      5.61      0.66      6.87      1.05      0.21      1.10      0.00
 REAL TIME  *        21.77 SEC
 DISK USED  *         1.76 GB      
 SF USED    *       263.41 MB      
 GA USED    *         0.00 MB       (max)       0.00 MB       (current)
 **********************************************************************************************************************************

 
 Extrapolating energy using  ECORR and basissets AVTZ AVQZ

 Extrapolating reference energy using E(n)=ECBS+A*(l+1)*exp(-9*sqrt(l))

 E(CBS)=   -39.57610882  A= 0.396772D+04

 Extrapolating correlation energy using function (n+ 0.5)^{-X} with X= 4.0
 
 L=3  E=    -0.16533090  EFIT=    -0.16533090
 L=4  E=    -0.17449418  EFIT=    -0.17449418

 E(CBS)=    -0.17978289  Coefficients:    2.1687

 BASIS           EREF            ECORR           ETOT
 AVTZ        -39.57341343     -0.16533090    -39.73874433
 AVQZ        -39.57580667     -0.17449418    -39.75030086
 CBS         -39.57610882     -0.17978289    -39.75589171
 


 **********************************************************************************************************************************
 DATASETS  * FILE   NREC   LENGTH (MB)   RECORD NAMES
              1      18       20.47       500      610      700      900      950      970     1001      129      960     1100   
                                          VAR    BASINP    GEOM    SYMINP    ZMAT    AOBASIS   BASIS     P2S    ABASIS      S 
                                         1400     1410     1200     1210     1080     1600     1650     1700   
                                           T        V       H0       H01     AOSYM     SMH    MOLCAS    OPER   

              2       8        7.85       500      610      700     1000      520     2100     1001     2101   
                                          VAR    BASINP    GEOM     BASIS   MCVARS     RHF     BASIS     RHF  

 PROGRAMS   *        TOTAL  EXTRAPOLEXTRAPOLAT  UCCSD(T)        HF       INT  UCCSD(T)        HF       INT      FILE
 CPU TIMES  *        16.06      0.00      0.01      5.61      0.66      6.87      1.05      0.21      1.10      0.00
 REAL TIME  *        21.80 SEC
 DISK USED  *         1.76 GB      
 SF USED    *       263.41 MB      
 GA USED    *         0.00 MB       (max)       0.00 MB       (current)
 **********************************************************************************************************************************

 UCCSD(T)/aug-cc-pVTZ:aug-cc-pVQZ energy=    -39.755891709598

        UCCSD(T)        HF-SCF          UCCSD(T)        HF-SCF  
    -39.77331904    -39.57580667    -39.76364376    -39.57341343
 **********************************************************************************************************************************
 Molpro calculation terminated
 Variable memory released
