
   OpenMP run-time library returned nthreads =  8
 operating system is UNIX !

 force (u-0-2.local) : TURBOMOLE V7.2 ( 21471 ) 11 Oct 2017 at 17:04:51
 Copyright (C) 2017 TURBOMOLE GmbH, Karlsruhe


    2018-02-08 16:38:51.834 



                             T U R B O M O L E   

                          a o f o r c e - program

                        using direct algorithms for

                       SCF level calculations of
                         * harmonic force constants
                         * hyperpolarizabilities
                         * IR and RAMAN intensities
                         * VCD intensities

                       DFT level calculations of
                         * harmonic force constants
                         * IR intensities
                                                   
       Stephan Boecker, Peter Deglmann, Filipp Furche and Marco Haeser
                          Quantum Chemistry Group
                          Universitaet  Karlsruhe
                                   Germany

 
 

          OpenMP Shared-Memory Parallelization:  8 CPUs.

            By: Erik P. Almaraz and Filipp Furche
            Copyright 2009-2011 by UCI and TURBOMOLE GmbH.

 
 
     References :
 
       RI-J implementation:
         Peter Deglmann, Klaus May, Filipp Furche, Reinhart Ahlrichs
                 Chem. Phys. Lett. 384:103 (2004)
 
       Efficiency, technical details:
         Peter Deglmann, Filipp Furche, Reinhart Ahlrichs
                 Chem. Phys. Lett. 362:511 (2002)
 
       Search of lowest eigenvalues by iterative diagonalization:
         Peter Deglmann, Filipp Furche
                 J. Chem. Phys. 117:9535 (2002)
 
       Vibrational circular dichroism implementation:
        Kevin Reiter, Michael Kuehn, Florian Weigend
                 J. Chem. Phys. 146:054102 (2017)  
 
 


              +--------------------------------------------------+
              | Atomic coordinate, charge and isotop information |
              +--------------------------------------------------+

                    atomic coordinates            atom    charge  isotop
         -3.12375344    2.09710198    2.39187672    c      6.000     0
         -2.10875952   -1.18255479    2.38964245    s     16.000     0
         -2.34258900   -1.85123589   -0.41917523    o      8.000     0
          2.27138049   -1.30473330   -1.57694623    np    93.000     0
          5.89759935   -0.96196084   -4.15339268    o      8.000     0
          0.71533677   -0.91019069    2.96459257    o      8.000     0
          2.81700723   -4.58906611   -1.16714033    o      8.000     0
          1.78694103    2.00713073   -1.91080108    o      8.000     0
         -2.88030482    2.84990638    4.29478377    h      1.000     0
         -1.92314770    3.08101604    1.03518171    h      1.000     0
         -5.10518208    2.16193423    1.82903109    h      1.000     0
          3.99547169   -1.39734774   -5.67765275    o      8.000     0
 
       center of nuclear mass  :    1.65519653   -1.14981336   -1.12340797
       center of nuclear charge:    1.51689888   -1.09160825   -1.02301216

              +--------------------------------------------------+
              |               basis set information              |
              +--------------------------------------------------+

              we will work with the 1s 3p 5d 7f 9g ... basis set
              ...i.e. with spherical basis functions...

   type   atoms  prim   cont   basis
   ---------------------------------------------------------------------------
    c        1     66     46   aug-cc-pVTZ   [5s4p3d2f|19s6p3d2f]
    s        1    122     50   aug-cc-pVTZ   [6s5p3d2f|42s17p3d2f]
    o        6     66     46   aug-cc-pVTZ   [5s4p3d2f|19s6p3d2f]
    np       1    213    117   SVP(6g)   [10s9p5d4f3g|14s13p10d8f6g]
    h        3     25     23   aug-cc-pVTZ   [4s3p2d|6s3p2d]
   ---------------------------------------------------------------------------
   total:   12    872    558
   ---------------------------------------------------------------------------

   total number of primitive shells          :  186
   total number of contracted shells         :  172
   total number of cartesian basis functions :  671
   total number of SCF-basis functions       :  558

 number of unique ecp types :                     1
 
             FOUND RI-J FLAG !
 

 NOTE: THIS IS A PRELIMINARY IMPLEMENTATION. THE RI APPROXIMATION IS
       PRESENTLY USED FOR CPKS CONTRIBUTIONS TO THE HESSIAN ONLY! SEE
       MANUAL FOR FURTHER DETAILS.

  
 AUXILIARY BASIS SET information:

              we will work with the 1s 3p 5d 7f 9g ... basis set
              ...i.e. with spherical basis functions...

   type   atoms  prim   cont   basis
   ---------------------------------------------------------------------------
    c        1     70     49   aug-cc-pVTZ   [6s4p3d1f1g|12s5p4d2f1g]
    s        1     77     51   aug-cc-pVTZ   [8s4p3d1f1g|14s5p5d2f1g]
    o        6     70     49   aug-cc-pVTZ   [6s4p3d1f1g|12s5p4d2f1g]
    np       1    268    205   def-TZVPP   [14s7p7d6f5g2h2i|18s7p7d6f6g3h5i]
    h        3     16     11   aug-cc-pVTZ   [3s1p1d|5s2p1d]
   ---------------------------------------------------------------------------
   total:   12    883    632
   ---------------------------------------------------------------------------

   total number of primitive shells          :  135
   total number of contracted shells         :  180
   total number of cartesian basis functions :  836
   total number of SCF-basis functions       :  632


 symmetry group of the molecule :   c1 

 the group has the following generators :
   c1(z)

    1 symmetry operations found

 there are 1 real representations :   a   

 maximum number of shells which are related by symmetry :  1


 determining totally symmetric integral contributions 
    - equivalent to irreducible tensor elements - 
 which can be formed within each triple of representations :

             representation triple      contributions

              a     a     a               1
       UHF mode switched on !

    mo occupation :
   irrep   mo's   occupied
    a      558       54
 
 number of basis functions   :                    558
 number of occupied orbitals :                     54
 
 ALPHA-Occupation:                    54
 BETA-Occupation :                    53
  MOs are in ASCII format !


 reading orbital data $uhfmo_alpha  from file alpha
 orbital characterization : scfconv=7

 reading orbital data $uhfmo_beta  from file beta
 orbital characterization : scfconv=7
 time elapsed for calculating density matrices :   0.406 sec

 number of non-frozen orbitals          :   558
 number of non-frozen occupied orbitals :    54

 number of non-frozen orbitals          :   558
 number of non-frozen occupied orbitals :    53
 Blocking parameters 
 shells:
    index      start shell   last shell  start bf    last bf    #bf 
       1             1         172             1        671    671
  
           ----------------------
               RI - INFORMATION
           ----------------------

 biggest AO integral is expected to be    25.741671788

 Threshold for integral neglect (rithr2):   0.37E-11
 Threshold for integral neglect (rithr1):   0.37E-11

 Contributions to RI integral batches: 
  neglected integral batches:                  1439
  direct contribution:                         7382
  memory contribution:                  6057
 Core memory available (ricore):               500 MiB
 Core memory needed for (P|Q) and Cholesky:      4 MiB
 Core memory used for integrals:               346 MiB
 
 ****************************************
 Memory allocated for RIDFT: 349 MiB
 ****************************************
 
  
           ------------------
           density functional
           ------------------
 PBE0 hybrid functional
 exchange:    3/4 (LDA+PBE) + 1/4 HF
 correlation: LDA (PW) + PBE

 iterations will be done with small grid
  
 spherical integration : Lebedev's spherical grid
 spherical gridsize    :                     4
    i.e. gridpoints    :                   434
 value for diffuse not defined
 radial integration    : Chebyshev 2nd kind (scaling 3)
 radial gridsize       :                     6
 integration cells     :                    12
 partition function    : becke
 partition sharpness   :                     3
  
 
 Derivatives of quadrature weights will be included
 
          Overall gridpoints after grid construction =        138607
 Ordering of quadrature gridpoints disabled.
 
 
 
 
 OCCUPIED-OCCUPIED TENSOR SPACES :

          IRREP   tensor space dimension   number of roots

           a              5725                  30
 
 OCCUPIED-VIRTUAL TENSOR SPACES :

          IRREP   tensor space dimension   number of roots

           a             53981                  30
 
 
 
 
 CONSTRUCTING integral bounds

 setting up bound for integral derivative estimation

 increment for numerical differentiation : 0.00050000
 
 machine precision:   2.220446049250313E-016

 integral neglect threshold       :  0.10E-09
 integral storage threshold THIZE :  0.10E-04
 integral storage threshold THIME :         5

 
 
 
 PREPARING NUMERICAL INTEGRATION
 
 Remaining core memory for DFT =                  3626 MB
 
 Memory needed per atom    =                 10568 KiB
 
     i. e.                    12 atoms per loop

 Calculating ground state density on molecular grid

 Integral of ground state total density: Na =   106.9999902618298    

 Integral of ground state spin density:  Nb =  0.9999987962995890    


 
 
 CONSTRUCTING first deriv. of <mu|x,y,z|nu> -> Dip. deriv.
  dipole integral derivatives will be neglected if
  expon. factor <0.745156E-12
      ...terminated. cpu:       0.62       wall:       0.08
 
 
 
 
 CONSTRUCTING first deriv. of  <mu|nu>
                               <mu|h|nu>    -> RHS
              second deriv. of <mu|nu>      -> Hessian
                               <mu|h|nu>    -> Hessian
                               nucl. rep.   -> Hessian
     integrals are neglected if expon. factor <  7.451564828614008E-014
 
 CONSTRUCTING ECP contribution              -> RHS
 
                                            -> Hessian
      ...terminated. cpu:      28.59       wall:      25.85
 
 
 
 
 CONSTRUCTING second deriv. of 2e energy    -> Hessian
   treating Coulomb (and exchange) contribution
     integrals will be neglected if total contribution <  7.451564828614008E-010
      ...terminated. cpu:    4491.95       wall:     566.42
   treating exchange-correlation contribution
      ...terminated. cpu:    3235.37       wall:    1115.93
 
 
 
 
 CONSTRUCTING S(i,j)xi
      ...terminated. cpu:       0.09       wall:       2.10
 
 
 
 
 CONSTRUCTING <i|x,y,z|j>*S(i,j)xi          -> Dip. deriv.
      ...terminated. cpu:       0.65       wall:       0.23
 
 
 
 
 CONSTRUCTING epsilon(i)*S(i,j)xi*S(i,j)chi -> Hessian
      ...terminated. cpu:       0.01       wall:       0.00
 
 
 
 
 CONSTRUCTING G(a,i)[S(k,l)xi]              -> RHS
              G(i,j)[S(k,l)xi]*S(i,j)chi    -> Hessian
 
         Maximum core memory set to                   4000 MB
         This corresponds to                   576 vectors in CAO basis
      ...terminated. cpu:    9217.79       wall:    1163.85
 
 
 
 
 CONSTRUCTING G(mu,nu)[D(kap,lam)]xi
 
          Maximum core memory set to                   4000 MB
          Atoms treated simultaneously :                    12
      ...terminated. cpu:    5138.56       wall:     664.60
 
 
 
 
 CONSTRUCTING F(a,i)xi                      -> RHS
              F(i,j)xi*S(i,j)chi            -> Hessian
 
        Maximum core memory set to                  4000 MB
        This corresponds to                  1038 vectors in CAO basis
      ...terminated. cpu:      15.10       wall:       3.94
 
 
 
 
 CONSTRUCTING epsilon(i)*S(a,i)xi           -> RHS
      ...terminated. cpu:       1.03       wall:       1.17
 
 
 
 
 SOLVING CPHF equations
 
 Residuum convergence criterium   :  1.000000000000000E-005
 
 Maximum number of Davidson iterations set to                    25
  Switching to small grid
        preparing numerical integration ....
          Overall gridpoints after grid construction =         42042

 Calculating ground state density on molecular grid

 Integral of ground state total density: Na =   107.0000098678763    

 Integral of ground state spin density:  Nb =  0.9999592119771752    




                       Nonorthonormal Krylov Space Iteration


 total number of roots to be determined:  30


 maximum core memory set to  4000 MB,
 corresponding to      575 vectors in CAO basis


 maximum number of simultaneously treated vectors (including degeneracy):       30


 Iteration IRREP Converged      Max. Euclidean
                 roots          residual norm

    1       a        0        1.453856756342803D-01
 
    2       a        0        3.285838266900840D-02
 
    3       a        0        1.226370453552307D-02
 
    4       a        0        1.709456110184965D-02
 
    5       a        0        8.973669290648491D-03
 
    6       a        0        2.381442227871048D-03
 
    7       a        0        4.624943917610143D-04
 
    8       a        6        7.921496846633341D-05
 
    9       a       26        1.244293553918792D-05
 
   10       a       30        9.460508742631238D-06
 

 converged!

  Switching to fine grid
        preparing numerical integration ....
          Overall gridpoints after grid construction =        138607

 Calculating ground state density on molecular grid

 Integral of ground state total density: Na =   106.9999902618295    

 Integral of ground state spin density:  Nb =  0.9999987962995887    



 Iteration IRREP Converged      Max. Euclidean
                 roots          residual norm

   11       a        0        3.088929366857618D-04
 

 NOTE: Residual norms are larger than 1.00D-05 due to mgrid option!

      ...terminated. cpu:   50096.46       wall:    6487.57
 
 
 
 
 CONSTRUCTING <a|x,y,z|i>*U(a,i)xi          -> Dip. deriv.
      ...terminated. cpu:       1.06       wall:       0.15
 
 
 
 
 CONSTRUCTING RHS(a,i)xi*U(a,i)chi          -> Hessian
      ...terminated. cpu:       0.33       wall:       0.05
 
 
 
 

            -----------------------
            permanent dipole moment
            -----------------------

                                   x                y                z
    electronic part       : -117.6839478292   104.6143783020    76.9786971795
     nuclear   part       :  115.5223851697  -102.9229712478   -75.2032454212
     total                :   -2.1615626595     1.6914070543     1.7754517583

 with reference to the point :   0.0000000        0.0000000        0.0000000
 (given in atomic units)
    | dipole |       :    8.3086739059  debye

   ***  dipole moment & cartesian dipole gradients written onto
        $dipole, $dipgrad,  file=<dipgrad>  ***

             -----------------------------------
             rotational and vibrational analysis
             -----------------------------------


            ==============================================================
            ATOMIC WEIGHTS (average over the natural occurance of isotops)
            ==============================================================
            ('*' denotes special isotop !)
              1     c                12.01115
              2     s                32.06400
              3     o                15.99940
              4     np              237.04820
              5     o                15.99940
              6     o                15.99940
              7     o                15.99940
              8     o                15.99940
              9     h                 1.00797
             10     h                 1.00797
             11     h                 1.00797
             12     o                15.99940

          -------------------------------------------------
          CARTESIAN FORCE CONSTANT MATRIX (hartree/bohr**2)
         (translational & rotational space projected out)
          -------------------------------------------------

   ATOM              1 c                           2 s 
                  dx        dy        dz        dx        dy        dz
   1 c     dx  0.5490812
           dy  0.0620038 0.3521923
           dz -0.0024613 0.0036526 0.5665254
   2 s     dx -0.0426366 0.0198275-0.0003794 0.4967852
           dy -0.0141924-0.1380360 0.0409701 0.0371966 0.2919908
           dz  0.0090089 0.0102101-0.0480301 0.0133924 0.0295868 0.5006671
   3 o     dx  0.0039915 0.0016342 0.0072016-0.0705376-0.0044979 0.0028879
           dy  0.0045205-0.0029115-0.0392178-0.0129739-0.0697770-0.0458838
           dz -0.0039769-0.0107767-0.0109690-0.0097260-0.0694111-0.3635401
   4 np    dx -0.0010707-0.0017195-0.0012863-0.0109110 0.0048517 0.0289654
           dy  0.0008522-0.0007368-0.0015138-0.0005943 0.0126883 0.0041658
           dz -0.0022143 0.0008318-0.0014946 0.0323015-0.0012660-0.0026847
   5 o     dx -0.0001545 0.0004856 0.0000901 0.0012072-0.0006078-0.0024061
           dy  0.0000019 0.0001108 0.0000495-0.0000603-0.0002894-0.0007281
           dz -0.0000137 0.0001504 0.0000017 0.0005245 0.0002019-0.0001197
   6 o     dx -0.0234871 0.0030518-0.0075907-0.3674121-0.0286969-0.0480516
           dy  0.0336960 0.0091934-0.0021932-0.0478923-0.0602161-0.0001276
           dz -0.0056059-0.0003134 0.0043833-0.0276233-0.0020137-0.0784946
   7 o     dx  0.0002188 0.0003739 0.0005154-0.0000076-0.0012904-0.0026958
           dy  0.0003484-0.0003020-0.0000110-0.0027806-0.0019653 0.0018047
           dz  0.0005413 0.0000191 0.0004187-0.0030446 0.0005015-0.0018797
   8 o     dx  0.0000548 0.0009191 0.0001758-0.0022287 0.0021289-0.0016368
           dy -0.0000641 0.0016071-0.0001429 0.0057331-0.0069306-0.0048288
           dz  0.0005291-0.0009702 0.0004322-0.0027048-0.0014780-0.0012317
   9 h     dx -0.0481578-0.0132176-0.0296600-0.0010030 0.0004952 0.0072139
           dy -0.0134457-0.0777161-0.0945752-0.0050613-0.0020150-0.0223604
           dz -0.0303362-0.0911004-0.2798873-0.0007631 0.0014354-0.0022275
  10 h     dx -0.1385903-0.0782921 0.1056921 0.0050487 0.0082264-0.0061717
           dy -0.0824189-0.1021891 0.0900735-0.0142285-0.0308149 0.0216075
           dz  0.1068097 0.0863271-0.1660316 0.0000686 0.0014266 0.0002513
  11 h     dx -0.2992677 0.0051885-0.0722438-0.0082065-0.0038550-0.0021312
           dy  0.0087120-0.0411333 0.0029032 0.0208570 0.0053073 0.0059390
           dz -0.0725023 0.0023896-0.0654056 0.0004934-0.0005602-0.0023538
  12 o     dx  0.0000185-0.0002552-0.0000536-0.0000980 0.0002416 0.0016248
           dy -0.0000137-0.0000788 0.0000049-0.0000231 0.0000579 0.0006148
           dz  0.0002217-0.0004200 0.0000570-0.0025391 0.0006068-0.0003563

   ATOM              3 o                           4 np
                  dx        dy        dz        dx        dy        dz
   3 o     dx  0.0863176
           dy  0.0111955 0.0738586
           dz  0.0334850 0.0945612 0.3776203
   4 np    dx -0.0267020-0.0031442-0.0059179 0.1755006
           dy -0.0013511-0.0174254-0.0033070-0.1200480 0.8940964
           dz  0.0022347 0.0029866-0.0106259-0.0433753-0.0922518 0.1692276
   5 o     dx -0.0041323-0.0002046 0.0032769-0.0485569-0.0035301 0.0256067
           dy -0.0007650 0.0000704 0.0005918-0.0050852-0.0125370 0.0055104
           dz  0.0014030-0.0003763-0.0002776 0.0119971 0.0030653 0.0039662
   6 o     dx  0.0068920-0.0001312-0.0212472-0.0093578 0.0028287-0.0074984
           dy -0.0059758 0.0095573-0.0084379 0.0003020-0.0172481-0.0033703
           dz -0.0476720-0.0098149 0.0013406 0.0010861-0.0001060-0.0222187
   7 o     dx -0.0012473 0.0047861 0.0021368-0.0436461 0.0632119-0.0050057
           dy  0.0077405 0.0045704-0.0043695 0.0508503-0.4266540 0.0578873
           dz -0.0008963-0.0017775 0.0026343 0.0003833 0.0489375-0.0427592
   8 o     dx  0.0019140-0.0056625 0.0008319-0.0441226 0.0518136-0.0007056
           dy -0.0099342 0.0027841 0.0079663 0.0693009-0.4156534 0.0320981
           dz  0.0002580 0.0008460 0.0026105-0.0019102 0.0443233-0.0408971
   9 h     dx  0.0006365 0.0032477 0.0012765 0.0003618-0.0002471 0.0003057
           dy  0.0026079-0.0089892-0.0036858-0.0009359-0.0011666 0.0000677
           dz -0.0001534-0.0009489 0.0016955-0.0005817 0.0006206-0.0001694
  10 h     dx -0.0009243-0.0018471-0.0000306-0.0000786 0.0038574-0.0003359
           dy  0.0006591 0.0072422-0.0027950 0.0008136-0.0024226 0.0001343
           dz -0.0002130-0.0000573 0.0001378 0.0004078-0.0025004 0.0008639
  11 h     dx  0.0019665-0.0002231 0.0014975 0.0000276-0.0006091-0.0007529
           dy -0.0020260 0.0007825-0.0001029 0.0000595-0.0009105 0.0011804
           dz -0.0000500-0.0001701-0.0003595 0.0001445 0.0006151-0.0001023
  12 o     dx  0.0018256 0.0004369-0.0016060 0.0085558 0.0038160-0.0005604
           dy  0.0007129 0.0002376-0.0002335 0.0047548-0.0120304-0.0038084
           dz  0.0015145-0.0001474-0.0002671 0.0100873-0.0020486-0.0531057

   ATOM              5 o                           6 o 
                  dx        dy        dz        dx        dy        dz
   5 o     dx  0.3224952
           dy  0.0647304 0.0317644
           dz  0.1842793 0.0450177 0.1879862
   6 o     dx -0.0007679 0.0002087-0.0008894 0.3911430
           dy  0.0007634 0.0002291-0.0002436 0.0187578 0.0497809
           dz  0.0021522-0.0003510-0.0003204 0.0758414 0.0129933 0.0969907
   7 o     dx  0.0058495-0.0052321 0.0047885 0.0000621 0.0010762 0.0019884
           dy -0.0120862-0.0015809-0.0066891 0.0048773 0.0030566-0.0086212
           dz -0.0005540 0.0005735-0.0021208 0.0022309-0.0044883 0.0018778
   8 o     dx -0.0000072 0.0076096 0.0028677 0.0044748-0.0019328-0.0006459
           dy  0.0107886 0.0057412 0.0065860-0.0080314 0.0043139 0.0081058
           dz -0.0025175-0.0015128-0.0043127 0.0022316 0.0054740-0.0018166
   9 h     dx -0.0000383-0.0000017-0.0000306-0.0004152-0.0004541-0.0008496
           dy  0.0000910 0.0000412 0.0000124-0.0001729 0.0014771 0.0020436
           dz  0.0001191 0.0000131 0.0000369 0.0011619 0.0007244 0.0012955
  10 h     dx  0.0002110 0.0000151 0.0000894-0.0000416-0.0021622 0.0007143
           dy -0.0001565-0.0000096-0.0000801 0.0007040 0.0071198-0.0028511
           dz -0.0001795-0.0000072-0.0000608-0.0006402-0.0007734-0.0005880
  11 h     dx -0.0001196-0.0000075-0.0000322-0.0006167 0.0036850-0.0006491
           dy  0.0000196-0.0000025-0.0000023 0.0067208-0.0074888 0.0006454
           dz -0.0000024 0.0000026 0.0000047 0.0001261 0.0000622 0.0014261
  12 o     dx -0.2759864-0.0614139-0.2049836-0.0004734 0.0001368 0.0012634
           dy -0.0602932-0.0235377-0.0476422-0.0001167 0.0002249 0.0002833
           dz -0.2098649-0.0491594-0.1847837 0.0043257 0.0003805-0.0038756

   ATOM              7 o                           8 o 
                  dx        dy        dz        dx        dy        dz
   7 o     dx  0.0331862
           dy -0.0606610 0.4064134
           dz  0.0001377-0.0490508 0.0312572
   8 o     dx  0.0096308 0.0038435-0.0006957 0.0335174
           dy -0.0015806 0.0099879-0.0004830-0.0550474 0.3975099
           dz -0.0007063-0.0010443 0.0108603-0.0020564-0.0402320 0.0319719
   9 h     dx -0.0000302 0.0000385-0.0000681-0.0004156 0.0002083 0.0000252
           dy  0.0002363 0.0000705 0.0001010-0.0005345 0.0006883 0.0000395
           dz  0.0000982-0.0001858 0.0000302 0.0005587-0.0003837-0.0000269
  10 h     dx  0.0000213-0.0007145 0.0001933-0.0000009-0.0028299-0.0001990
           dy -0.0000068 0.0004683-0.0001221-0.0011513 0.0008614 0.0005750
           dz  0.0000023 0.0005071-0.0001263-0.0004921 0.0019015-0.0009525
  11 h     dx -0.0000091 0.0002095 0.0001150-0.0001666 0.0003581 0.0003586
           dy -0.0000941 0.0000154-0.0002522-0.0002830 0.0007975 0.0003313
           dz -0.0000206-0.0000507 0.0000507 0.0002353-0.0005040-0.0003871
  12 o     dx -0.0040284 0.0083345 0.0016573-0.0026501-0.0089012 0.0066916
           dy -0.0008193 0.0059196 0.0060413-0.0017031-0.0017072-0.0063518
           dz -0.0012389 0.0098234-0.0002432 0.0015631-0.0100831 0.0037497

   ATOM              9 h                          10 h 
                  dx        dy        dz        dx        dy        dz
   9 h     dx  0.0474518
           dy  0.0136289 0.0805389
           dz  0.0336869 0.1008509 0.3000251
  10 h     dx  0.0028181 0.0035397-0.0046411 0.1449507
           dy  0.0086786 0.0069640-0.0089983 0.0843592 0.1115560
           dz  0.0149717 0.0143071-0.0147083-0.1140696-0.0946955 0.1739084
  11 h     dx -0.0012324 0.0001014 0.0008993-0.0132736 0.0026431-0.0067449
           dy -0.0123789 0.0001179-0.0020055-0.0140937 0.0011834-0.0064667
           dz -0.0268811 0.0032272-0.0059823 0.0189381-0.0028950 0.0072210
  12 o     dx  0.0000243-0.0000548-0.0000485-0.0001404 0.0001045 0.0000793
           dy  0.0000022-0.0000110-0.0000216-0.0000581 0.0000410 0.0000310
           dz  0.0000094-0.0000281-0.0000814-0.0001794 0.0000468 0.0000851

   ATOM             11 h                          12 o 
                  dx        dy        dz        dx        dy        dz
  11 h     dx  0.3208318
           dy -0.0075110 0.0413130
           dz  0.0795443-0.0021022 0.0658942
  12 o     dx  0.0000663 0.0000178-0.0000252 0.2728863
           dy  0.0000203 0.0000182-0.0000144 0.0575371 0.0308657
           dz  0.0001395-0.0000675-0.0000060 0.1959609 0.0510966 0.2388271
 

   *** projected hessian written onto $hessian (projected), file=<hessian> ***

 dipole moment in principle axis system (a.u.) :
    -3.0025530547     1.2850980773     0.1365210075
 norm :   3.26885911290573     

 rotational constants b for rotations around axis of inertia
 and optical intensities for (1 <-- 0) transition

   b   :     0.0811592352     0.0200960916     0.0184265807   (cm**(-1))
   b   :        2433.0927         602.4657         552.4150     (MHz)
  int. :     9.0153248462     1.6514770683     0.0186379855     (a.u.)

   x   :     0.7255779835    -0.0595822358     0.6855556484
   y   :    -0.1408828094     0.9622806630     0.2327401117
   z   :    -0.6735641201    -0.2654541067     0.6898155502

   ***  normal modes written onto $vibrational normal modes, file=<vib_normal_modes>  ***

 keyword $vibrational reduced masses missing in file <control>


   ***  vibrational spectroscopic data written onto$vibrational spectrum   
        file=<vibspectrum>  ***

          ---------------------------------------------------
          NORMAL MODES and VIBRATIONAL FREQUENCIES (cm**(-1))
          ---------------------------------------------------

 imaginary wave numbers indicate a negative curvature of the energy surface.
 zero frequency modes have no physical meaning except being generators of
 translations and rotations. each vibrational normal mode - given in terms of
 cartesian displacement vectors of all atoms - has been normalized to unity.
 to obtain mass-weigthed normal coordinates in a.u. divide the tabulated
 modes by sqrt(reduced mass * 1822.88853).
 band intensities or cross sections refer to independent non-degenerate normal
 modes, that is, the intensities of degenerate modes have yet to be added.
 dDIP/dQ is the normal mode derivative of the dipole moment.


       mode               1        2        3        4        5        6

     frequency           0.00     0.00     0.00     0.00     0.00     0.00

     symmetry                                                             

        IR                -        -        -        -        -        - 
|dDIP/dQ|   (a.u.)     0.0000   0.0000   0.0000   0.0000   0.0000   0.0000
intensity (km/mol)       0.00     0.00     0.00     0.00     0.00     0.00
intensity (  %   )       0.00     0.00     0.00     0.00     0.00     0.00
 
       RAMAN              -        -        -        -        -        - 
 
  1   c           x   0.05373  0.08411 -0.10575  0.24197  0.27696  0.17710
                  y   0.26537 -0.19149  0.06238  0.21842  0.13106 -0.03392
                  z   0.14546  0.33554 -0.00911  0.12861  0.07146  0.07768
  2   s           x  -0.06603  0.08498  0.14383  0.01956  0.25525  0.20221
                  y   0.22828 -0.19110  0.13950  0.14970  0.12426 -0.02610
                  z   0.17810  0.15593  0.16688 -0.03587  0.19260  0.01301
  3   o           x  -0.17429  0.01810  0.11174 -0.00409  0.14854  0.03689
                  y   0.18291 -0.05810 -0.05471  0.31314 -0.00961 -0.02527
                  z   0.19792  0.12984  0.21578 -0.07281  0.23335  0.02658
  4   np          x  -0.18890 -0.00970  0.03593  0.04191  0.10998 -0.03758
                  y  -0.00770 -0.00195  0.22380  0.06105 -0.09586  0.01134
                  z   0.04969  0.04556  0.04513 -0.00845  0.03896 -0.25293
  5   o           x  -0.25331 -0.07132 -0.06629  0.08506  0.01840 -0.19658
                  y  -0.18948  0.12112  0.33802 -0.04950 -0.24398  0.04167
                  z  -0.06514 -0.02479 -0.08355  0.03757 -0.10963 -0.47269
  6   o           x  -0.03893  0.09863  0.14009  0.03359  0.27798  0.23501
                  y   0.13625 -0.21754  0.39058 -0.07203  0.13335 -0.00489
                  z   0.08857  0.10140  0.06632  0.00026  0.07662 -0.15813
  7   o           x  -0.29653  0.00100  0.29804 -0.18399  0.10324  0.01258
                  y  -0.01974 -0.02121  0.29107  0.00252 -0.07970  0.01515
                  z   0.09643 -0.12307  0.23528 -0.17680  0.17743 -0.28912
  8   o           x  -0.07800 -0.01860 -0.22604  0.26910  0.11966 -0.08334
                  y   0.00358  0.01373  0.16595  0.11145 -0.10876  0.00792
                  z   0.00059  0.21402 -0.14856  0.16182 -0.10305 -0.22043
  9   h           x   0.13801  0.12934 -0.10683  0.27832  0.35123  0.28679
                  y   0.29300 -0.28157  0.20042  0.10193  0.22119 -0.03382
                  z   0.12375  0.36539 -0.06358  0.17004  0.02630  0.06361
 10   h           x   0.04914  0.05144 -0.22074  0.31917  0.23404  0.08718
                  y   0.19552 -0.12688  0.06856  0.20828  0.05774 -0.02340
                  z   0.09074  0.35348 -0.10638  0.18958 -0.01970  0.00574
 11   h           x   0.03929  0.07065 -0.12732  0.25071  0.25689  0.14244
                  y   0.32688 -0.16538 -0.12380  0.38237  0.11700 -0.04864
                  z   0.20337  0.38593  0.04536  0.11671  0.14050  0.19800
 12   o           x  -0.31470 -0.10759 -0.07819  0.06731 -0.03998 -0.28574
                  y  -0.14931  0.19280  0.09749  0.15958 -0.30492  0.02845
                  z   0.00000  0.00000  0.00000  0.00000 -0.01936 -0.35765

reduced mass(g/mol)    20.707    8.637   26.530    9.319   17.575   28.637


       mode               7        8        9       10       11       12

     frequency          18.43    65.29   114.79   125.01   178.99   197.99

     symmetry            a        a        a        a        a        a   

        IR               YES      YES      YES      YES      YES      YES
|dDIP/dQ|   (a.u.)     0.0017   0.0009   0.0009   0.0013   0.0039   0.0013
intensity (km/mol)       5.06     1.36     1.57     3.15    26.95     3.07
intensity (  %   )       1.13     0.30     0.35     0.70     6.02     0.69
 
       RAMAN             YES      YES      YES      YES      YES      YES
 
  1   c           x  -0.08627  0.22819 -0.27379 -0.20969  0.09275  0.01335
                  y  -0.00029  0.17651 -0.05901  0.05025 -0.14652  0.01005
                  z  -0.18638 -0.26443 -0.14410  0.29274 -0.02662  0.02021
  2   s           x  -0.12018  0.00222  0.05306 -0.05979  0.32211 -0.02221
                  y  -0.01038  0.10515  0.04163  0.09396 -0.04789 -0.00171
                  z  -0.14601 -0.00216  0.07703 -0.00263 -0.28626 -0.00173
  3   o           x   0.04259  0.00247  0.07075 -0.07479  0.19797 -0.16180
                  y   0.01061 -0.10186 -0.13064  0.26853  0.13574 -0.06370
                  z  -0.16702  0.04461  0.11531 -0.03936 -0.32789  0.03262
  4   np          x   0.06758 -0.01226  0.00302  0.02863 -0.05776  0.00621
                  y   0.00742 -0.03968 -0.01956 -0.06273 -0.01774  0.00275
                  z   0.07042  0.01097 -0.00669 -0.00878  0.06070  0.00643
  5   o           x  -0.28121 -0.03288  0.02399 -0.02570 -0.07084  0.00823
                  y  -0.08259  0.24310 -0.04746  0.25881  0.08156 -0.05880
                  z  -0.46183  0.02330  0.01915 -0.04325  0.06131 -0.00148
  6   o           x  -0.15257  0.01637  0.03577 -0.06213  0.32708  0.01471
                  y  -0.05117 -0.06004  0.29851  0.16304  0.17914  0.01288
                  z   0.02504  0.01790  0.02262 -0.03175 -0.34666 -0.15436
  7   o           x   0.08215  0.11396 -0.19105  0.12786 -0.19781  0.04629
                  y   0.00032 -0.03154 -0.07740 -0.04737 -0.04192  0.00964
                  z   0.01500 -0.08300 -0.19294  0.04567  0.24747  0.00939
  8   o           x   0.15583 -0.13691  0.18057 -0.05986 -0.05065  0.02932
                  y   0.03292 -0.04795  0.01797 -0.09229 -0.00411  0.00726
                  z   0.19137  0.09300  0.14520 -0.04959  0.01515  0.02037
  9   h           x  -0.20063  0.25051 -0.37574 -0.18959  0.19950  0.55466
                  y  -0.01791  0.29678  0.11582 -0.11158 -0.24052  0.13878
                  z  -0.16475 -0.31474 -0.20018  0.35419 -0.00398 -0.10079
 10   h           x   0.01060  0.31288 -0.36958 -0.29558 -0.08173 -0.33323
                  y  -0.00212 -0.00497 -0.02817  0.22671  0.00436 -0.10363
                  z  -0.10191 -0.32042 -0.20644  0.34553 -0.07122 -0.36891
 11   h           x  -0.04982  0.23901 -0.27568 -0.22964  0.04172 -0.14208
                  y   0.02263  0.26325 -0.32500  0.00863 -0.26096  0.00867
                  z  -0.31192 -0.29298 -0.16771  0.35802  0.14188  0.56429
 12   o           x  -0.52731 -0.00763 -0.00131 -0.00725 -0.07517  0.00077
                  y   0.00090  0.20804  0.20457  0.14491  0.14975  0.04511
                  z  -0.17697  0.00296 -0.02030 -0.03274  0.04082 -0.01944

reduced mass(g/mol)    15.849    6.039    7.107    7.550   17.529    2.028


       mode              13       14       15       16       17       18

     frequency         215.39   221.48   234.15   238.34   276.91   289.49

     symmetry            a        a        a        a        a        a   

        IR               YES      YES      YES      YES      YES      YES
|dDIP/dQ|   (a.u.)     0.0011   0.0022   0.0026   0.0024   0.0035   0.0050
intensity (km/mol)       2.33     8.80    11.98    10.15    21.17    44.43
intensity (  %   )       0.52     1.97     2.68     2.27     4.73     9.93
 
       RAMAN             YES      YES      YES      YES      YES      YES
 
  1   c           x   0.10144  0.00337 -0.02005  0.03206 -0.01667 -0.03246
                  y  -0.01933  0.00997 -0.02150  0.00874  0.00975  0.03785
                  z  -0.05758  0.02908 -0.04411  0.03012  0.00628 -0.00440
  2   s           x  -0.06725  0.01098  0.03050 -0.00736 -0.00827 -0.03412
                  y  -0.07242  0.01224 -0.00282 -0.00346  0.01356  0.01869
                  z   0.07167  0.00367  0.02105 -0.00003  0.00469  0.03989
  3   o           x  -0.05258 -0.02683 -0.02563 -0.16724  0.05815 -0.09054
                  y  -0.09914 -0.00575 -0.01255 -0.08628  0.01367 -0.05159
                  z   0.07983  0.00853  0.01761  0.04488 -0.00421  0.06613
  4   np          x   0.00422 -0.02533 -0.05738  0.01085 -0.04086  0.07992
                  y  -0.00969 -0.00555 -0.01190  0.00382 -0.00023  0.00360
                  z  -0.01233 -0.02003 -0.03775  0.01557  0.05556 -0.08417
  5   o           x   0.00999  0.03612 -0.06199 -0.00643  0.41969 -0.02255
                  y   0.14988 -0.26197  0.43506  0.05861 -0.02782 -0.00149
                  z  -0.06438  0.05049 -0.03068 -0.02482 -0.54001  0.04472
  6   o           x  -0.07124  0.01790  0.03161  0.03603 -0.00877 -0.01828
                  y  -0.11629  0.02286  0.00863  0.04095 -0.01855 -0.04427
                  z   0.08836 -0.04062 -0.03689 -0.17815  0.03534 -0.03518
  7   o           x  -0.27276  0.27962  0.19577 -0.05874 -0.09748 -0.44565
                  y   0.00682  0.06285  0.05704 -0.01642 -0.00172  0.00896
                  z   0.47973  0.15488  0.22428 -0.05891  0.06344  0.49533
  8   o           x   0.37752  0.04352  0.52848  0.00671 -0.17575 -0.43951
                  y  -0.00415  0.02261  0.12323 -0.00221 -0.01661 -0.01407
                  z  -0.40698  0.12711  0.42227 -0.03082  0.11450  0.54536
  9   h           x   0.06524 -0.46239  0.02217 -0.46399  0.01564 -0.09555
                  y   0.04265 -0.14645  0.06125 -0.16481  0.01136  0.05060
                  z  -0.07740  0.15158 -0.08245  0.16360  0.00130 -0.00036
 10   h           x   0.23292  0.32150 -0.07524  0.39989 -0.05480 -0.00300
                  y  -0.14352  0.12677 -0.04646  0.11389  0.01590  0.03108
                  z  -0.03389  0.39551 -0.11162  0.43169 -0.02177  0.01997
 11   h           x   0.13651  0.13977 -0.03790  0.18377 -0.03053 -0.01952
                  y   0.10801  0.04287 -0.08542  0.08434 -0.01133  0.01041
                  z  -0.16585 -0.44371  0.01158 -0.49060  0.05226 -0.05506
 12   o           x  -0.02218  0.00046  0.14157  0.01208  0.44297 -0.06745
                  y   0.36571  0.20811 -0.40891 -0.05304  0.01886 -0.02256
                  z  -0.07686 -0.03935 -0.03494 -0.01194 -0.50842  0.05629

reduced mass(g/mol)    14.055    4.959   16.482    2.433   16.935   18.772


       mode              19       20       21       22       23       24

     frequency         311.26   379.98   401.30   533.46   663.62   817.50

     symmetry            a        a        a        a        a        a   

        IR               YES      YES      YES      YES      YES      YES
|dDIP/dQ|   (a.u.)     0.0008   0.0018   0.0030   0.0057   0.0045   0.0025
intensity (km/mol)       1.07     5.97    16.31    56.78    36.17    11.05
intensity (  %   )       0.24     1.33     3.64    12.69     8.08     2.47
 
       RAMAN             YES      YES      YES      YES      YES      YES
 
  1   c           x   0.14904 -0.00820  0.16409  0.00959  0.14619 -0.01977
                  y   0.04569  0.00795 -0.16982 -0.02761 -0.39207  0.02232
                  z   0.16429  0.00339 -0.10188 -0.00060 -0.02237  0.01159
  2   s           x  -0.06585  0.00820 -0.02222  0.16104 -0.06112 -0.01328
                  y  -0.02058  0.00899 -0.13079  0.05950  0.20474 -0.00211
                  z  -0.07399  0.00433  0.05721 -0.16239 -0.00158  0.01463
  3   o           x   0.13148 -0.02299 -0.13266 -0.45174  0.03003 -0.05014
                  y  -0.22474 -0.01461  0.21573 -0.13470 -0.00889 -0.02172
                  z  -0.03716  0.00716 -0.02664 -0.11623  0.04423 -0.04847
  4   np          x  -0.00340 -0.02566  0.00309  0.00244  0.00093  0.00425
                  y  -0.00111 -0.00633 -0.00166  0.00097 -0.00088 -0.00751
                  z  -0.00585 -0.01685 -0.00275 -0.00203 -0.00067 -0.00279
  5   o           x   0.00344  0.57604  0.01369  0.01034 -0.00074 -0.02524
                  y   0.00486  0.05295 -0.00324 -0.00077  0.00018 -0.00466
                  z   0.00122 -0.39994 -0.01213 -0.01360  0.00134 -0.02672
  6   o           x  -0.11216  0.01265 -0.04879  0.08577 -0.03624  0.04223
                  y   0.23089 -0.00632  0.24068  0.03375 -0.02929  0.00723
                  z   0.05565 -0.04549  0.06449  0.47003 -0.02883  0.05683
  7   o           x  -0.01459  0.03707  0.01548 -0.00693 -0.00210  0.09381
                  y  -0.00246  0.00569 -0.00034  0.03329 -0.00315 -0.62902
                  z  -0.00102  0.00660 -0.01330 -0.00272  0.00275  0.07984
  8   o           x   0.01220  0.03215 -0.02914  0.01071 -0.00154 -0.11518
                  y   0.00515  0.00871 -0.01165 -0.03468  0.02048  0.74057
                  z   0.03264  0.01547  0.03061  0.00145 -0.00378 -0.07524
  9   h           x   0.41544 -0.02351  0.23680 -0.05240  0.08005 -0.00590
                  y  -0.29492  0.00354  0.09532 -0.30463 -0.60717  0.04015
                  z   0.26499  0.00730 -0.21833  0.11603  0.06939  0.00206
 10   h           x   0.24561 -0.01599  0.40422 -0.24963 -0.01956  0.02839
                  y   0.07430  0.02751 -0.59411  0.43107 -0.09922 -0.05569
                  z   0.27047  0.01084 -0.20226  0.10811  0.04548 -0.00941
 11   h           x   0.11734 -0.00788  0.21396 -0.03550  0.10693 -0.01425
                  y   0.45984 -0.01294  0.08569 -0.29706 -0.59932  0.03515
                  z   0.32357 -0.00006 -0.24027  0.13022  0.09781 -0.00388
 12   o           x   0.00098 -0.26204  0.00318  0.00701 -0.00100  0.03250
                  y  -0.00543  0.02218 -0.00098  0.00094  0.00001  0.00505
                  z   0.00621  0.65356  0.00115 -0.00534  0.00083  0.01784

reduced mass(g/mol)     3.996   16.189    4.368    9.770    4.454   15.913


       mode              25       26       27       28       29       30

     frequency         895.48   915.68   937.27  1000.49  1020.55  1235.20

     symmetry            a        a        a        a        a        a   

        IR               YES      YES      YES      YES      YES      YES
|dDIP/dQ|   (a.u.)     0.0159   0.0017   0.0084   0.0105   0.0101   0.0071
intensity (km/mol)     447.60     5.36   125.81   195.73   179.60    90.71
intensity (  %   )     100.00     1.20    28.11    43.73    40.13    20.27
 
       RAMAN             YES      YES      YES      YES      YES      YES
 
  1   c           x   0.05621  0.09871  0.09829 -0.08128  0.06537  0.00034
                  y   0.00752  0.03050  0.05836 -0.06800  0.02333 -0.00674
                  z  -0.05014  0.11022 -0.10279  0.09859  0.06067  0.00193
  2   s           x   0.01269  0.00006  0.03112  0.14719 -0.26617  0.00403
                  y  -0.02060  0.00040 -0.06330  0.02703 -0.07829 -0.00058
                  z  -0.00762  0.00108 -0.01240 -0.15962 -0.26529 -0.00417
  3   o           x   0.00506  0.00493  0.00587 -0.00410  0.06108 -0.00511
                  y   0.01803 -0.03583  0.06203  0.03354  0.09613  0.00033
                  z   0.05676 -0.05227  0.10744  0.27919  0.40721  0.00842
  4   np          x  -0.01266 -0.00002  0.00077 -0.00058 -0.00157 -0.00239
                  y   0.08366 -0.00004 -0.00553 -0.00043 -0.00066 -0.00008
                  z  -0.00990 -0.00004  0.00069  0.00050 -0.00208  0.00303
  5   o           x  -0.00097 -0.00023 -0.00103 -0.00427  0.00257  0.55478
                  y  -0.00812 -0.00002  0.00018 -0.00124  0.00091  0.12596
                  z  -0.00279  0.00023 -0.00121 -0.00523 -0.00135  0.41565
  6   o           x  -0.05574 -0.05739 -0.11619 -0.24567  0.45673 -0.00758
                  y  -0.00170  0.01886  0.02457 -0.04635  0.05439 -0.00035
                  z  -0.01167 -0.00824 -0.02909 -0.01365  0.11370  0.00307
  7   o           x   0.10590 -0.00008 -0.00349  0.00341  0.00414  0.01093
                  y  -0.66451  0.00059  0.02807 -0.01595  0.00284 -0.03770
                  z   0.08336  0.00002 -0.00430  0.00170  0.00550 -0.00116
  8   o           x   0.07169 -0.00002 -0.00867 -0.00372  0.00456  0.00112
                  y  -0.54283 -0.00010  0.04947  0.02351  0.00173  0.03651
                  z   0.06097 -0.00007 -0.00374 -0.00206  0.00602 -0.01050
  9   h           x  -0.03640 -0.31014 -0.10570  0.10602 -0.23176 -0.00106
                  y  -0.16172  0.59548 -0.37113  0.40672  0.35072  0.03420
                  z   0.03201 -0.07052  0.10186 -0.12179 -0.05004 -0.01408
 10   h           x  -0.15570 -0.16056 -0.28832  0.22866 -0.15493 -0.01598
                  y   0.36103 -0.05290  0.72472 -0.61356 -0.00703  0.02113
                  z   0.03451 -0.17969  0.05401 -0.04843 -0.15440  0.00721
 11   h           x   0.01156  0.13462 -0.01022  0.03038  0.07379  0.00480
                  y  -0.16139 -0.64713 -0.35539  0.33906 -0.44706  0.03518
                  z   0.07524 -0.12609  0.20128 -0.22361 -0.09101 -0.00920
 12   o           x   0.00534  0.00011  0.00134  0.00598 -0.00179 -0.52634
                  y  -0.00709  0.00001  0.00078  0.00135 -0.00032 -0.12306
                  z   0.00398 -0.00026  0.00017  0.00336  0.00442 -0.45243

reduced mass(g/mol)    14.351    1.375    1.940    4.865   11.727   15.951


       mode              31       32       33       34       35       36

     frequency        1283.31  1437.25  1446.74  3039.13  3148.34  3155.55

     symmetry            a        a        a        a        a        a   

        IR               YES      YES      YES      YES      YES      YES
|dDIP/dQ|   (a.u.)     0.0032   0.0013   0.0016   0.0040   0.0027   0.0006
intensity (km/mol)      18.03     2.81     4.52    29.04    12.65     0.64
intensity (  %   )       4.03     0.63     1.01     6.49     2.83     0.14
 
       RAMAN             YES      YES      YES      YES      YES      YES
 
  1   c           x   0.03941 -0.04196 -0.04305 -0.01068 -0.06060  0.06762
                  y  -0.13181 -0.00683 -0.01335  0.04061 -0.01878  0.01839
                  z   0.00137  0.04197 -0.04559 -0.00167 -0.06935 -0.06409
  2   s           x  -0.00383 -0.00439 -0.00274  0.00004 -0.00049  0.00028
                  y   0.00113 -0.00341 -0.00088 -0.00019 -0.00014  0.00041
                  z   0.00313  0.00503 -0.00278  0.00002 -0.00055 -0.00036
  3   o           x   0.00084  0.00166  0.00056  0.00012  0.00021 -0.00010
                  y  -0.00054  0.00226 -0.00027  0.00009 -0.00006 -0.00010
                  z  -0.00617 -0.00121 -0.00009  0.00019  0.00047  0.00019
  4   np          x   0.00007  0.00004  0.00002  0.00001 -0.00000 -0.00000
                  y  -0.00044 -0.00020  0.00001 -0.00003 -0.00000 -0.00002
                  z   0.00005  0.00001  0.00001  0.00000 -0.00000  0.00001
  5   o           x  -0.00233 -0.00044  0.00000 -0.00005  0.00000 -0.00001
                  y  -0.00048 -0.00007  0.00001 -0.00000  0.00000  0.00000
                  z  -0.00167 -0.00028  0.00001 -0.00002  0.00000 -0.00000
  6   o           x   0.00623  0.00082 -0.00022 -0.00019  0.00040 -0.00019
                  y   0.00111  0.00199  0.00046 -0.00001  0.00024 -0.00013
                  z  -0.00030 -0.00220  0.00036 -0.00015  0.00021  0.00011
  7   o           x  -0.00023 -0.00006  0.00004 -0.00002  0.00001  0.00001
                  y   0.00180  0.00072  0.00001  0.00010  0.00000  0.00005
                  z  -0.00030 -0.00014  0.00005 -0.00001  0.00001 -0.00002
  8   o           x  -0.00146 -0.00075 -0.00054 -0.00001  0.00002  0.00005
                  y   0.00365  0.00168 -0.00027  0.00033  0.00002  0.00034
                  z   0.00045  0.00028 -0.00063 -0.00007  0.00002 -0.00013
  9   h           x  -0.17851  0.65213  0.25290 -0.07548  0.07617  0.05985
                  y   0.49274  0.00058  0.35083 -0.19997  0.25749  0.14907
                  z  -0.20154 -0.06175 -0.21015 -0.53017  0.65747  0.37019
 10   h           x  -0.30396 -0.20485  0.48150 -0.34603 -0.02028 -0.46411
                  y   0.48802  0.26774  0.15835 -0.27276 -0.01017 -0.39088
                  z   0.13690  0.08506  0.54249  0.38823 -0.00602  0.52799
 11   h           x   0.03681  0.15660 -0.13473  0.54822  0.67272 -0.40578
                  y   0.56016 -0.13846 -0.32290 -0.00710 -0.02175  0.01231
                  z   0.03494 -0.63457  0.30172  0.16129  0.18224 -0.12792
 12   o           x   0.00213  0.00037 -0.00004  0.00002  0.00000  0.00000
                  y   0.00054  0.00010 -0.00001  0.00001 -0.00000  0.00000
                  z   0.00186  0.00033 -0.00003  0.00004  0.00001  0.00000

reduced mass(g/mol)     1.219    1.049    1.054    1.027    1.105    1.107
 

         **************************************************************
         *                                                            *
         *  zero point VIBRATIONAL energy  :      0.0564948  Hartree  *
         *    SCF-energy                   :  -1403.5651685           *
         *    SCF + E(vib0)                :  -1403.5086736           *
         *                                                            *
         **************************************************************




 time elapsed for vibrational analysis     0.16 sec


    ------------------------------------------------------------------------
         total  cpu-time : 20 hours  7 minutes and 49 seconds
         total wall-time :  2 hours 49 minutes and 21 seconds
    ------------------------------------------------------------------------

   ****  force : all done  ****


    2018-02-08 19:28:13.027 

aoforce ended normally 
