12
Energy = -1403.565168470
C    -1.6530191    1.1097386    1.2657266 
S    -1.1159075   -0.6257810    1.2645443 
O    -1.2396447   -0.9796318   -0.2218180 
Np    1.2019628   -0.6904351   -0.8344840 
O     3.1208752   -0.5090478   -2.1978807 
O     0.3785399   -0.4816522    1.5687948 
O     1.4906960   -2.4284292   -0.6176241 
O     0.9456085    1.0621278   -1.0111524 
H    -1.5241917    1.5081055    2.2727017 
H    -1.0176859    1.6304035    0.5477946 
H    -2.7015460    1.1440463    0.9678816 
O     2.1143126   -0.7394446   -3.0044844 
