
 Primary working directories    : /state/partition1/vallet/537210.phlam-s-sakura
 Secondary working directories  : /state/partition1/vallet/537210.phlam-s-sakura
 Wavefunction directory         : /home/vallet/wfu/
 Main file repository           : /state/partition1/vallet/537210.phlam-s-sakura/

 SHA1      : 5e3d8ac6839c721e2824de82269b4736200146bd
 NAME      : 2015.1.37
 ARCHNAME  : linux/x86_64
 FC        : /opt/intel/composer_xe_2015.1.133/bin/intel64/ifort
 BLASLIB   : -Wl,-_start-group /opt/intel/mkl/lib/intel64/libmkl_intel_ilp64.a /opt/intel/mkl/lib/intel64/libmkl_intel_thread.a /opt/intel/mkl/lib/intel64/libmkl_core.a -Wl,-_end-group
 id        : lill

 Nodes      nprocs
 u-5-4.local    8

 Using customized tuning parameters: mindgm=1; mindgv=20; mindgc=4; mindgr=1; noblas=0; minvec=7
 default implementation of scratch files=sf  

  memory,1000,m;
  file, 1, trans-CH3OSO.CCSD-T-CBS.int, new;
  file, 2, trans-CH3OSO.CCSD-T-CBS.wfu, new;
 
 geometry={
 7
 Energy = -588.2454338284
 C     0.4885495   -0.7991136    0.0000000
 H     0.1541685   -1.8338657    0.0000000
 H     1.0894548   -0.6140045    0.8940115
 H     1.0894548   -0.6140045   -0.8940115
 O    -0.6962955   -0.0059759    0.0000000
 S    -0.4022839    1.6110583    0.0000000
 O    -1.7230483    2.2559059    0.0000000
 }
 
 basis={
   default,aug-cc-pVTZ;
 }
 {cfit,basis_coul=mycoul,basis_exch=myexch}
 
 charge=0;
 spin=1;
 
 hf;
 uccsd(t);
 
 ehf(1) = ENERGR(1);
 ecor_ccsdt(1) = ENERGY(1)-ENERGR(1);
 ecor_mp2(1) = EMP2(1)-ENERGR(1);
 
 basis={
   default,aug-cc-pVQZ;
 }
 {cfit,basis_coul=mycoul,basis_exch=myexch}
 
 hf;
 uccsd(t);
 ehf(2) = ENERGR(1);
 ecor_ccsdt(2) = ENERGY(1)-ENERGR(1);
 ecor_mp2(2) = EMP2(1)-ENERGR(1);
 
 extrapolate, basis=avtz:avqz, eref=ehf, ecorr=ecor_ccsdt, method_r=km, method_c=LH4;
 extrapolate, basis=avtz:avqz, eref=ehf, ecorr=ecor_mp2, method_r=km, method_c=LH4;

 Variables initialized (889), CPU time= 0.01 sec
 Commands  initialized (702), CPU time= 0.00 sec, 572 directives.
 Default parameters read. Elapsed time= 0.08 sec

 Checking input...
 Passed
1


                                         ***  PROGRAM SYSTEM MOLPRO  ***
                                       Copyright, TTI GmbH Stuttgart, 2015
                                    Version 2015.1 linked Aug 10 2018 15:00:15


 **********************************************************************************************************************************
 LABEL *                                                                                 
  64 bit mpp version                                                                     DATE: 28-Jan-19          TIME: 16:49:11  
 **********************************************************************************************************************************

 SHA1:             5e3d8ac6839c721e2824de82269b4736200146bd
 **********************************************************************************************************************************

 Variable memory set to 1000000000 words,  buffer space   230000 words



 Permanent file  1  trans-ch3oso.ccsd-t-cbs.int      assigned.  Implementation=df  
 Permanent file  2  trans-ch3oso.ccsd-t-cbs.wfu      assigned.  Implementation=df  
 


 **********************************************************************************************************************************
 DATASETS  * FILE   NREC   LENGTH (MB)   RECORD NAMES
              1       1        0.03       500   
                                          VAR  

              2       1        0.03       500   
                                          VAR  

 PROGRAMS   *        TOTAL      FILE
 CPU TIMES  *         0.23      0.04
 REAL TIME  *         2.59 SEC
 DISK USED  *         0.26 MB      
 **********************************************************************************************************************************

Geometry recognized as XYZ

 SETTING BASIS          =    AUG-CC-PVTZ
 SETTING CHARGE         =     0.00000000D+00                                  
 SETTING SPIN           =         1.00000000                                  


 Recomputing integrals since basis changed


 Using spherical harmonics

 Library entry C      S aug-cc-pVTZ          selected for orbital group  1
 Library entry C      P aug-cc-pVTZ          selected for orbital group  1
 Library entry C      D aug-cc-pVTZ          selected for orbital group  1
 Library entry C      F aug-cc-pVTZ          selected for orbital group  1
 Library entry H      S aug-cc-pVTZ          selected for orbital group  2
 Library entry H      P aug-cc-pVTZ          selected for orbital group  2
 Library entry H      D aug-cc-pVTZ          selected for orbital group  2
 Library entry O      S aug-cc-pVTZ          selected for orbital group  3
 Library entry O      P aug-cc-pVTZ          selected for orbital group  3
 Library entry O      D aug-cc-pVTZ          selected for orbital group  3
 Library entry O      F aug-cc-pVTZ          selected for orbital group  3
 Library entry S      S aug-cc-pVTZ          selected for orbital group  4
 Library entry S      P aug-cc-pVTZ          selected for orbital group  4
 Library entry S      D aug-cc-pVTZ          selected for orbital group  4
 Library entry S      F aug-cc-pVTZ          selected for orbital group  4


 PROGRAM * SEWARD (Integral evaluation for generally contracted gaussian basis sets)     Author: Roland Lindh, 1990

 Geometry written to block  1 of record 700


 Point group  Cs  



 ATOMIC COORDINATES

 NR  ATOM    CHARGE       X              Y              Z

   1  C       6.00    0.923224753   -1.510105846    0.000000000
   2  H       1.00    0.291336242   -3.465503922    0.000000000
   3  H       1.00    2.058771197   -1.160300344    1.689436887
   4  H       1.00    2.058771197   -1.160300344   -1.689436887
   5  O       8.00   -1.315807797   -0.011292814    0.000000000
   6  S      16.00   -0.760206395    3.044458958    0.000000000
   7  O       8.00   -3.256089386    4.263044314    0.000000000

 Bond lengths in Bohr (Angstrom)

 1-2  2.054961003  1-3  2.065436179  1-4  2.065436179  1-5  2.694384394  5-6  3.105851221
     ( 1.087438532)     ( 1.092981757)     ( 1.092981757)     ( 1.425806819)     ( 1.643545687)

 6-7  2.777477664
     ( 1.469777884)

 Bond angles

  1-5-6  113.49340303   2-1-3  109.28162896   2-1-4  109.28162896   2-1-5  105.89015233

  3-1-4  109.76149742   3-1-5  111.26365527   4-1-5  111.26365527   5-6-7  105.71836549

 NUCLEAR CHARGE:                   41
 NUMBER OF PRIMITIVE AOS:         366
 NUMBER OF SYMMETRY AOS:          324
 NUMBER OF CONTRACTIONS:          257   ( 162A'  +  95A"  )
 NUMBER OF CORE ORBITALS:           8   (   7A'  +   1A"  )
 NUMBER OF VALENCE ORBITALS:       19   (  14A'  +   5A"  )


 NUCLEAR REPULSION ENERGY  172.44836052


 Eigenvalues of metric

         1 0.521E-04 0.609E-04 0.193E-03 0.275E-03 0.396E-03 0.566E-03 0.627E-03 0.793E-03
         2 0.805E-04 0.739E-03 0.147E-02 0.228E-02 0.427E-02 0.472E-02 0.506E-02 0.575E-02


 Contracted 2-electron integrals neglected if value below      1.0D-11
 AO integral compression algorithm  1   Integral accuracy      1.0D-11

     1221.853 MB (compressed) written to integral file ( 47.3%)

     Node minimum: 132.907 MB, node maximum: 168.559 MB


 NUMBER OF SORTED TWO-ELECTRON INTEGRALS:   34775610.     BUFFER LENGTH:  32768
 NUMBER OF SEGMENTS:   3  SEGMENT LENGTH:   15962427      RECORD LENGTH: 524288

 Memory used in sort:      16.52 MW

 SORT1 READ   322849483. AND WROTE    32870638. INTEGRALS IN     96 RECORDS. CPU TIME:     5.12 SEC, REAL TIME:     5.60 SEC
 SORT2 READ   262311445. AND WROTE   278182326. INTEGRALS IN   4352 RECORDS. CPU TIME:     0.85 SEC, REAL TIME:     1.29 SEC

 Node minimum:    34766730.  Node maximum:    34777713. integrals

 OPERATOR DM      FOR CENTER  0  COORDINATES:    0.000000    0.000000    0.000000


 **********************************************************************************************************************************
 DATASETS  * FILE   NREC   LENGTH (MB)   RECORD NAMES
              1      18       21.32       500      610      700      900      950      970     1000      129      960     1100   
                                          VAR    BASINP    GEOM    SYMINP    ZMAT    AOBASIS   BASIS     P2S    ABASIS      S 
                                         1400     1410     1200     1210     1080     1600     1650     1700   
                                           T        V       H0       H01     AOSYM     SMH    MOLCAS    OPER   

              2       5        2.34       500      610      700     1000      520   
                                          VAR    BASINP    GEOM     BASIS   MCVARS    

 PROGRAMS   *        TOTAL       INT      FILE
 CPU TIMES  *        13.21     12.97      0.04
 REAL TIME  *        35.03 SEC
 DISK USED  *         4.37 GB      
 GA USED    *         0.00 MB       (max)       0.00 MB       (current)
 **********************************************************************************************************************************


 PROGRAM * RHF-SCF (OPEN SHELL)       Authors: W. Meyer, H.-J. Werner


 NUMBER OF ELECTRONS:      21+   20-
 CONVERGENCE THRESHOLDS:    1.00E-05 (Density)    1.00E-07 (Energy)
 MAX. NUMBER OF ITERATIONS:       60
 INTERPOLATION TYPE:            DIIS
 INTERPOLATION STEPS:              2 (START)      1 (STEP)
 LEVEL SHIFTS:                 -0.60 (CLOSED) -0.30 (OPEN) 



 Orbital guess generated from atomic densities. Full valence occupancy:   21   6

 Molecular orbital dump at record        2100.2

 Initial alpha occupancy:  16   5
 Initial beta  occupancy:  16   4
 Wave function symmetry:    2

 ITERATION    DDIFF          GRAD             ENERGY        2-EL.EN.            DIPOLE MOMENTS         DIIS   ORB.
    1      0.000D+00      0.000D+00      -586.79363721    781.380216    2.29766   -1.09563    0.00000    0    start
    2      0.000D+00      0.597D-02      -586.88020145    783.869525    1.39187   -0.87837    0.00000    1    diag,B
    3      0.580D-02      0.221D-02      -586.89059270    784.239707    1.50972   -0.90289    0.00000    2    diag,B
    4      0.174D-02      0.691D-03      -586.89375021    784.307761    1.46597   -0.86604    0.00000    3    diag,B
    5      0.976D-03      0.281D-03      -586.89458830    784.295218    1.46079   -0.85697    0.00000    4    diag,B
    6      0.470D-03      0.103D-03      -586.89475115    784.291668    1.46314   -0.85445    0.00000    5    diag,B
    7      0.177D-03      0.547D-04      -586.89480263    784.286405    1.46345   -0.85548    0.00000    6    fixocc
    8      0.107D-03      0.303D-04      -586.89482380    784.292375    1.46209   -0.85566    0.00000    7    diag,B
    9      0.722D-04      0.192D-04      -586.89483693    784.296883    1.45851   -0.85509    0.00000    8    diag,B
   10      0.622D-04      0.118D-04      -586.89484356    784.300222    1.45514   -0.85397    0.00000    9    orth
   11      0.432D-04      0.702D-05      -586.89484646    784.302465    1.45233   -0.85264    0.00000    9    diag,B
   12      0.351D-04      0.317D-05      -586.89484693    784.303397    1.45121   -0.85186    0.00000    9    diag,B
   13      0.170D-04      0.129D-05      -586.89484698    784.303618    1.45088   -0.85152    0.00000    9    diag,B
   14      0.647D-05      0.510D-06      -586.89484699    784.303637    1.45084   -0.85146    0.00000    0    orth

 Final alpha occupancy:  16   5
 Final beta  occupancy:  16   4

 !RHF STATE 1.2 Energy               -586.894846986409
 Nuclear energy                       172.44836052
 One-electron energy                -1151.49502591
 Two-electron energy                  392.15181840
 Virial quotient                       -1.00078468
 !RHF STATE 1.2 Dipole moment           1.45083876    -0.85146319     0.00000000
 Dipole moment /Debye                   3.68742278    -2.16406180     0.00000000

 Orbital energies:

         1.1          2.1          3.1          4.1          5.1          6.1          7.1          8.1          9.1         10.1
    -92.111559   -20.618477   -20.579645   -11.309084    -9.096770    -6.777607    -6.775940    -1.444655    -1.366341    -0.984249

        11.1         12.1         13.1         14.1         15.1         16.1         17.1         18.1
     -0.868346    -0.689279    -0.669703    -0.578205    -0.545091    -0.469278     0.023941     0.041665

         1.2          2.2          3.2          4.2          5.2          6.2          7.2
     -6.776178    -0.681070    -0.576378    -0.493554    -0.368580     0.041626     0.102000

 HOMO      5.2    -0.368580 =     -10.0296eV
 LUMO     17.1     0.023941 =       0.6515eV
 LUMO-HOMO         0.392522 =      10.6811eV


 **********************************************************************************************************************************
 DATASETS  * FILE   NREC   LENGTH (MB)   RECORD NAMES
              1      18       21.34       500      610      700      900      950      970     1000      129      960     1100   
                                          VAR    BASINP    GEOM    SYMINP    ZMAT    AOBASIS   BASIS     P2S    ABASIS      S 
                                         1400     1410     1200     1210     1080     1600     1650     1700   
                                           T        V       H0       H01     AOSYM     SMH    MOLCAS    OPER   

              2       6        5.86       500      610      700     1000      520     2100   
                                          VAR    BASINP    GEOM     BASIS   MCVARS     RHF  

 PROGRAMS   *        TOTAL        HF       INT      FILE
 CPU TIMES  *        17.00      3.79     12.97      0.04
 REAL TIME  *        39.47 SEC
 DISK USED  *         4.63 GB      
 SF USED    *         0.14 MB      
 GA USED    *         0.00 MB       (max)       0.00 MB       (current)
 **********************************************************************************************************************************


 PROGRAM * CCSD (Unrestricted open-shell coupled cluster)     Authors: C. Hampel, H.-J. Werner, 1991, M. Deegan, P.J. Knowles, 1992


 Convergence thresholds:  THRVAR = 1.00D-08  THRDEN = 1.00D-06

 CCSD(T)     terms to be evaluated (factor= 1.000)


 Number of core orbitals:           8 (   7   1 )
 Number of closed-shell orbitals:  12 (   9   3 )
 Number of active  orbitals:        1 (   0   1 )
 Number of external orbitals:     236 ( 146  90 )

 Memory could be reduced to 154.09 Mwords without degradation in triples

 Number of N-1 electron functions:              25
 Number of N-2 electron functions:             300
 Number of singly external CSFs:              3265
 Number of doubly external CSFs:           6452655
 Total number of CSFs:                     6455920

 Molecular orbitals read from record     2100.2  Type=RHF/CANONICAL (state 1.2)

 Integral transformation finished. Total CPU:   6.60 sec, npass=  1  Memory used:  40.37 MW

 Starting RMP2 calculation

 ITER.      SQ.NORM     CORR.ENERGY   TOTAL ENERGY   ENERGY CHANGE        DEN1      VAR(S)    VAR(P)  DIIS     TIME
   1      1.24624536    -0.84333964  -587.73818663    -0.84333964    -0.00279805  0.30D-04  0.11D-02  1  1     8.06
   2      1.24898126    -0.84634914  -587.74119613    -0.00300950    -0.00000537  0.17D-06  0.28D-05  2  2     8.79
   3      1.24907548    -0.84640268  -587.74124967    -0.00005354    -0.00000002  0.17D-08  0.11D-07  3  3     9.60
   4      1.24907667    -0.84640250  -587.74124948     0.00000019    -0.00000000  0.25D-10  0.36D-10  4  4    10.48

 Norm of t1 vector:      0.06080143      S-energy:    -0.00484598      T1 diagnostic:  0.00023356
 Norm of t2 vector:      0.49535831      P-energy:    -0.84155652
                                         Alpha-Beta:  -0.62883566
                                         Alpha-Alpha: -0.10681712
                                         Beta-Beta:   -0.10590374

 Spin contamination <S**2-Sz**2-Sz>     0.00187464
  Reference energy                   -586.894846986406
  RHF-RMP2 correlation energy          -0.846402495536
 !RHF-RMP2 energy                    -587.741249481942

 Starting UCCSD calculation

 ITER.      SQ.NORM     CORR.ENERGY   TOTAL ENERGY   ENERGY CHANGE        DEN1      VAR(S)    VAR(P)  DIIS     TIME
   1      1.24080564    -0.82933862  -587.72418561    -0.82933862    -0.02627054  0.62D-02  0.51D-02  1  1    19.78
   2      1.26342364    -0.85273397  -587.74758096    -0.02339535    -0.00263056  0.22D-03  0.91D-03  2  2    28.90
   3      1.27292278    -0.85659217  -587.75143916    -0.00385820    -0.00034299  0.24D-03  0.47D-04  3  3    38.01
   4      1.27733029    -0.85812503  -587.75297202    -0.00153286    -0.00006841  0.37D-04  0.14D-04  4  4    47.60
   5      1.27967839    -0.85847231  -587.75331930    -0.00034728    -0.00001540  0.13D-04  0.18D-05  5  5    57.23
   6      1.28089590    -0.85860217  -587.75344915    -0.00012986    -0.00000255  0.16D-05  0.52D-06  6  6    66.64
   7      1.28128857    -0.85863684  -587.75348383    -0.00003468    -0.00000053  0.35D-06  0.11D-06  6  2    76.17
   8      1.28139487    -0.85864467  -587.75349166    -0.00000783    -0.00000013  0.98D-07  0.22D-07  6  1    85.57
   9      1.28143331    -0.85864784  -587.75349483    -0.00000317    -0.00000004  0.28D-07  0.63D-08  6  3    95.01
  10      1.28143400    -0.85864847  -587.75349546    -0.00000063    -0.00000001  0.85D-08  0.16D-08  6  5   104.45
  11      1.28144368    -0.85864767  -587.75349466     0.00000080    -0.00000000  0.15D-08  0.44D-09  6  4   113.91

 Norm of t1 vector:      0.14281932      S-energy:    -0.00489973      T1 diagnostic:  0.01822233
                                                                       D1 diagnostic:  0.05490674
 Norm of t2 vector:      0.51092692      P-energy:    -0.85374795
                                         Alpha-Beta:  -0.66552075
                                         Alpha-Alpha: -0.09524863
                                         Beta-Beta:   -0.09297856

 Singles amplitudes (print threshold =  0.500E-01):

         I         SYM. A    A   T(IA) [Beta-Beta]

        11         2         1      0.05206920

 Spin contamination <S**2-Sz**2-Sz>     0.00219643

 Memory could be reduced to 163.44 Mwords without degradation in triples
 

 RESULTS
 =======

  Reference energy                   -586.894846986406
  UCCSD singles energy                 -0.004899727146
  UCCSD pair energy                    -0.853747947422
  UCCSD correlation energy             -0.858647674569
  Triples (T) contribution             -0.040192704842
  Total correlation energy             -0.898840379410
 
  RHF-UCCSD energy                   -587.753494660975
  RHF-UCCSD[T] energy                -587.795915176006
  RHF-UCCSD-T energy                 -587.792750590784
 !RHF-UCCSD(T) energy                -587.793687365817

 Program statistics:

 Available memory in ccsd:               999998418
 Min. memory needed in ccsd:              18411561
 Max. memory used in ccsd:                26470488
 Max. memory used in cckext:              23396612 (11 integral passes)
 Max. memory used in cckint:              40374524 ( 1 integral passes)



 **********************************************************************************************************************************
 DATASETS  * FILE   NREC   LENGTH (MB)   RECORD NAMES
              1      18       21.34       500      610      700      900      950      970     1000      129      960     1100   
                                          VAR    BASINP    GEOM    SYMINP    ZMAT    AOBASIS   BASIS     P2S    ABASIS      S 
                                         1400     1410     1200     1210     1080     1600     1650     1700   
                                           T        V       H0       H01     AOSYM     SMH    MOLCAS    OPER   

              2       6        5.86       500      610      700     1000      520     2100   
                                          VAR    BASINP    GEOM     BASIS   MCVARS     RHF  

 PROGRAMS   *        TOTAL  UCCSD(T)        HF       INT      FILE
 CPU TIMES  *       284.89    267.88      3.79     12.97      0.04
 REAL TIME  *       337.49 SEC
 DISK USED  *        11.12 GB      
 SF USED    *         2.82 GB      
 GA USED    *         0.00 MB       (max)       0.00 MB       (current)
 **********************************************************************************************************************************
 SETTING EHF(1)         =      -586.89484699  AU                              
 SETTING ECOR_CCSDT(1)  =        -0.89884038  AU                              
 SETTING ECOR_MP2(1)    =        -0.84640250  AU                              
 SETTING BASIS          =    AUG-CC-PVQZ


 Recomputing integrals since basis changed


 Using spherical harmonics

 Library entry C      S aug-cc-pVQZ          selected for orbital group  1
 Library entry C      P aug-cc-pVQZ          selected for orbital group  1
 Library entry C      D aug-cc-pVQZ          selected for orbital group  1
 Library entry C      F aug-cc-pVQZ          selected for orbital group  1
 Library entry C      G aug-cc-pVQZ          selected for orbital group  1
 Library entry H      S aug-cc-pVQZ          selected for orbital group  2
 Library entry H      P aug-cc-pVQZ          selected for orbital group  2
 Library entry H      D aug-cc-pVQZ          selected for orbital group  2
 Library entry H      F aug-cc-pVQZ          selected for orbital group  2
 Library entry O      S aug-cc-pVQZ          selected for orbital group  3
 Library entry O      P aug-cc-pVQZ          selected for orbital group  3
 Library entry O      D aug-cc-pVQZ          selected for orbital group  3
 Library entry O      F aug-cc-pVQZ          selected for orbital group  3
 Library entry O      G aug-cc-pVQZ          selected for orbital group  3
 Library entry S      S aug-cc-pVQZ          selected for orbital group  4
 Library entry S      P aug-cc-pVQZ          selected for orbital group  4
 Library entry S      D aug-cc-pVQZ          selected for orbital group  4
 Library entry S      F aug-cc-pVQZ          selected for orbital group  4
 Library entry S      G aug-cc-pVQZ          selected for orbital group  4


 PROGRAM * SEWARD (Integral evaluation for generally contracted gaussian basis sets)     Author: Roland Lindh, 1990

 Geometry written to block  1 of record 700


 Point group  Cs  



 ATOMIC COORDINATES

 NR  ATOM    CHARGE       X              Y              Z

   1  C       6.00    0.923224753   -1.510105846    0.000000000
   2  H       1.00    0.291336242   -3.465503922    0.000000000
   3  H       1.00    2.058771197   -1.160300344    1.689436887
   4  H       1.00    2.058771197   -1.160300344   -1.689436887
   5  O       8.00   -1.315807797   -0.011292814    0.000000000
   6  S      16.00   -0.760206395    3.044458958    0.000000000
   7  O       8.00   -3.256089386    4.263044314    0.000000000

 Bond lengths in Bohr (Angstrom)

 1-2  2.054961003  1-3  2.065436179  1-4  2.065436179  1-5  2.694384394  5-6  3.105851221
     ( 1.087438532)     ( 1.092981757)     ( 1.092981757)     ( 1.425806819)     ( 1.643545687)

 6-7  2.777477664
     ( 1.469777884)

 Bond angles

  1-5-6  113.49340303   2-1-3  109.28162896   2-1-4  109.28162896   2-1-5  105.89015233

  3-1-4  109.76149742   3-1-5  111.26365527   4-1-5  111.26365527   5-6-7  105.71836549

 NUCLEAR CHARGE:                   41
 NUMBER OF PRIMITIVE AOS:         662
 NUMBER OF SYMMETRY AOS:          535
 NUMBER OF CONTRACTIONS:          462   ( 279A'  + 183A"  )
 NUMBER OF CORE ORBITALS:           8   (   7A'  +   1A"  )
 NUMBER OF VALENCE ORBITALS:       19   (  14A'  +   5A"  )


 NUCLEAR REPULSION ENERGY  172.44836052


 Eigenvalues of metric

         1 0.126E-04 0.186E-04 0.479E-04 0.551E-04 0.577E-04 0.636E-04 0.798E-04 0.866E-04
         2 0.276E-04 0.884E-04 0.142E-03 0.312E-03 0.478E-03 0.619E-03 0.743E-03 0.890E-03


 Contracted 2-electron integrals neglected if value below      1.0D-12
 AO integral compression algorithm  1   Integral accuracy      1.0D-12

     12534.940 MB (compressed) written to integral file ( 48.2%)

     Node minimum: 1481.114 MB, node maximum: 1652.031 MB


 NUMBER OF SORTED TWO-ELECTRON INTEGRALS:  359617624.     BUFFER LENGTH:  32768
 NUMBER OF SEGMENTS:  12  SEGMENT LENGTH:   31997656      RECORD LENGTH: 524288

 Memory used in sort:      32.55 MW

 SORT1 READ  3247600262. AND WROTE   326640638. INTEGRALS IN    940 RECORDS. CPU TIME:   610.61 SEC, REAL TIME:   632.76 SEC
 SORT2 READ  2614129920. AND WROTE  2877437676. INTEGRALS IN  48064 RECORDS. CPU TIME:   105.61 SEC, REAL TIME:   409.64 SEC

 Node minimum:   359596666.  Node maximum:   359762756. integrals

 OPERATOR DM      FOR CENTER  0  COORDINATES:    0.000000    0.000000    0.000000


 **********************************************************************************************************************************
 DATASETS  * FILE   NREC   LENGTH (MB)   RECORD NAMES
              1      18       24.12       500      610      700      900      950      970     1001      129      960     1100   
                                          VAR    BASINP    GEOM    SYMINP    ZMAT    AOBASIS   BASIS     P2S    ABASIS      S 
                                         1400     1410     1200     1210     1080     1600     1650     1700   
                                           T        V       H0       H01     AOSYM     SMH    MOLCAS    OPER   

              2       7        6.37       500      610      700     1000      520     2100     1001   
                                          VAR    BASINP    GEOM     BASIS   MCVARS     RHF     BASIS   

 PROGRAMS   *        TOTAL       INT  UCCSD(T)        HF       INT      FILE
 CPU TIMES  *      1033.44    748.45    267.88      3.79     12.97      0.04
 REAL TIME  *      1414.48 SEC
 DISK USED  *        50.47 GB      
 SF USED    *         2.82 GB      
 GA USED    *         0.00 MB       (max)       0.00 MB       (current)
 **********************************************************************************************************************************


 PROGRAM * RHF-SCF (OPEN SHELL)       Authors: W. Meyer, H.-J. Werner


 NUMBER OF ELECTRONS:      21+   20-
 CONVERGENCE THRESHOLDS:    1.00E-05 (Density)    1.00E-07 (Energy)
 MAX. NUMBER OF ITERATIONS:       60
 INTERPOLATION TYPE:            DIIS
 INTERPOLATION STEPS:              2 (START)      1 (STEP)
 LEVEL SHIFTS:                 -0.60 (CLOSED) -0.30 (OPEN) 



 Molecular orbitals read from record     2100.2  Type=RHF/CANONICAL (state 1.2)
 
 Present basis size:     279 183
 Previous basis size:    162  95
 Previous occupation:     16   5
 Previous closed-shells:  16   4
 Previous core-orbitals:   7   1
 Present occupation:      16   5
 Present closed-shells:   16   4
 Present core-orbitals:    7   1
 Wavefunction symmetry:    2   Doublet 

 Orbital overlap <old|new>:  < 1.1| 1.1> = 1.000000   < 2.1| 2.1> = 0.999999   < 3.1| 3.1> = 0.999999   < 4.1| 4.1> = 0.999999
                             < 5.1| 5.1> = 1.000000   < 6.1| 6.1> = 0.999999   < 7.1| 7.1> = 0.999998   < 1.2| 1.2> = 0.999998
                             < 8.1| 8.1> = 0.999995   < 9.1| 9.1> = 0.999992   <10.1|10.1> = 0.999994   <11.1|11.1> = 0.999995
                             <12.1|12.1> = 0.999985   <13.1|13.1> = 0.999986   <14.1|14.1> = 0.999984   <15.1|15.1> = 0.999980
                             <16.1|16.1> = 0.999971   < 2.2| 2.2> = 0.999983   < 3.2| 3.2> = 0.999978   < 4.2| 4.2> = 0.999972
                             < 5.2| 5.2> = 0.999968

 Molecular orbital dump at record        2101.2

 ITERATION    DDIFF          GRAD             ENERGY        2-EL.EN.            DIPOLE MOMENTS         DIIS   ORB.
    1      0.000D+00      0.000D+00      -586.91068575    784.327510    1.45108   -0.85115    0.00000    0    start
    2      0.000D+00      0.169D-02      -586.91482367    784.469238    1.44884   -0.85210    0.00000    1    diag,B
    3      0.744D-02      0.230D-03      -586.91497396    784.456001    1.44870   -0.85342    0.00000    2    diag,B
    4      0.130D-02      0.356D-04      -586.91498497    784.452301    1.44850   -0.85392    0.00000    3    diag,B
    5      0.399D-03      0.124D-04      -586.91498767    784.447467    1.44871   -0.85446    0.00000    4    diag,B
    6      0.152D-03      0.549D-05      -586.91498851    784.446045    1.44921   -0.85465    0.00000    5    diag,B
    7      0.312D-04      0.321D-05      -586.91498899    784.444590    1.44987   -0.85494    0.00000    6    diag,B
    8      0.792D-05      0.222D-05      -586.91498929    784.443981    1.45045   -0.85514    0.00000    7    orth
    9      0.898D-05      0.156D-05      -586.91498952    784.443570    1.45113   -0.85539    0.00000    8    diag,B
   10      0.650D-05      0.957D-06      -586.91498961    784.443171    1.45151   -0.85556    0.00000    9    diag,B
   11      0.428D-05      0.465D-06      -586.91498961    784.443122    1.45162   -0.85563    0.00000    0    orth

 Final alpha occupancy:  16   5
 Final beta  occupancy:  16   4

 !RHF STATE 1.2 Energy               -586.914989613226
 Nuclear energy                       172.44836052
 One-electron energy                -1151.58491134
 Two-electron energy                  392.22156120
 Virial quotient                       -1.00064832
 !RHF STATE 1.2 Dipole moment           1.45161750    -0.85563042     0.00000000
 Dipole moment /Debye                   3.68940200    -2.17465315     0.00000000

 Orbital energies:

         1.1          2.1          3.1          4.1          5.1          6.1          7.1          8.1          9.1         10.1
    -92.108002   -20.615646   -20.576245   -11.308249    -9.093550    -6.774753    -6.773056    -1.443489    -1.365060    -0.983966

        11.1         12.1         13.1         14.1         15.1         16.1         17.1         18.1
     -0.867672    -0.689193    -0.669717    -0.578360    -0.544915    -0.469741     0.020911     0.037284

         1.2          2.2          3.2          4.2          5.2          6.2          7.2
     -6.773502    -0.681165    -0.576258    -0.494039    -0.368613     0.037444     0.087008

 HOMO      5.2    -0.368613 =     -10.0305eV
 LUMO     17.1     0.020911 =       0.5690eV
 LUMO-HOMO         0.389524 =      10.5995eV


 **********************************************************************************************************************************
 DATASETS  * FILE   NREC   LENGTH (MB)   RECORD NAMES
              1      18       24.16       500      610      700      900      950      970     1001      129      960     1100   
                                          VAR    BASINP    GEOM    SYMINP    ZMAT    AOBASIS   BASIS     P2S    ABASIS      S 
                                         1400     1410     1200     1210     1080     1600     1650     1700   
                                           T        V       H0       H01     AOSYM     SMH    MOLCAS    OPER   

              2       8       12.00       500      610      700     1000      520     2100     1001     2101   
                                          VAR    BASINP    GEOM     BASIS   MCVARS     RHF     BASIS     RHF  

 PROGRAMS   *        TOTAL        HF       INT  UCCSD(T)        HF       INT      FILE
 CPU TIMES  *      1088.38     54.82    748.45    267.88      3.79     12.97      0.04
 REAL TIME  *      1474.13 SEC
 DISK USED  *        50.47 GB      
 SF USED    *         2.82 GB      
 GA USED    *         0.00 MB       (max)       0.00 MB       (current)
 **********************************************************************************************************************************


 PROGRAM * CCSD (Unrestricted open-shell coupled cluster)     Authors: C. Hampel, H.-J. Werner, 1991, M. Deegan, P.J. Knowles, 1992


 Convergence thresholds:  THRVAR = 1.00D-08  THRDEN = 1.00D-06

 CCSD(T)     terms to be evaluated (factor= 1.000)


 Number of core orbitals:           8 (   7   1 )
 Number of closed-shell orbitals:  12 (   9   3 )
 Number of active  orbitals:        1 (   0   1 )
 Number of external orbitals:     441 ( 263 178 )

 Number of N-1 electron functions:              25
 Number of N-2 electron functions:             300
 Number of singly external CSFs:              5987
 Number of doubly external CSFs:          22391187
 Total number of CSFs:                    22397174

 Molecular orbitals read from record     2101.2  Type=RHF/CANONICAL (state 1.2)

 Integral transformation finished. Total CPU:  92.12 sec, npass=  1  Memory used: 236.32 MW

 Starting RMP2 calculation

 ITER.      SQ.NORM     CORR.ENERGY   TOTAL ENERGY   ENERGY CHANGE        DEN1      VAR(S)    VAR(P)  DIIS     TIME
   1      1.25089314    -0.89771773  -587.81270734    -0.89771773    -0.00279821  0.30D-04  0.11D-02  1  1    98.12
   2      1.25361875    -0.90072423  -587.81571384    -0.00300650    -0.00000544  0.18D-06  0.28D-05  2  2   101.85
   3      1.25371464    -0.90077945  -587.81576907    -0.00005522    -0.00000002  0.17D-08  0.11D-07  3  3   105.14
   4      1.25371590    -0.90077927  -587.81576888     0.00000018    -0.00000000  0.23D-10  0.39D-10  4  4   108.45

 Norm of t1 vector:      0.06089997      S-energy:    -0.00484054      T1 diagnostic:  0.00023060
 Norm of t2 vector:      0.50000709      P-energy:    -0.89593873
                                         Alpha-Beta:  -0.67636560
                                         Alpha-Alpha: -0.11058721
                                         Beta-Beta:   -0.10898592

 Spin contamination <S**2-Sz**2-Sz>     0.00186519
  Reference energy                   -586.914989613228
  RHF-RMP2 correlation energy          -0.900779271176
 !RHF-RMP2 energy                    -587.815768884404

 Starting UCCSD calculation

 ITER.      SQ.NORM     CORR.ENERGY   TOTAL ENERGY   ENERGY CHANGE        DEN1      VAR(S)    VAR(P)  DIIS     TIME
   1      1.24201347    -0.87575173  -587.79074135    -0.87575173    -0.02642375  0.62D-02  0.50D-02  1  1   177.21
   2      1.26373886    -0.89878574  -587.81377535    -0.02303400    -0.00269236  0.23D-03  0.90D-03  2  2   240.47
   3      1.27341275    -0.90284465  -587.81783426    -0.00405891    -0.00034347  0.24D-03  0.47D-04  3  3   303.47
   4      1.27759641    -0.90435758  -587.81934719    -0.00151293    -0.00007308  0.40D-04  0.14D-04  4  4   366.03
   5      1.28008789    -0.90474328  -587.81973290    -0.00038570    -0.00001612  0.14D-04  0.19D-05  5  5   429.11
   6      1.28132370    -0.90488116  -587.81987077    -0.00013788    -0.00000272  0.17D-05  0.53D-06  6  6   494.21
   7      1.28174385    -0.90491684  -587.81990645    -0.00003568    -0.00000053  0.34D-06  0.11D-06  6  2   556.86
   8      1.28184864    -0.90492357  -587.81991319    -0.00000674    -0.00000013  0.96D-07  0.22D-07  6  1   614.70
   9      1.28188619    -0.90492708  -587.81991669    -0.00000351    -0.00000003  0.26D-07  0.60D-08  6  3   675.03
  10      1.28188654    -0.90492747  -587.81991708    -0.00000039    -0.00000001  0.84D-08  0.15D-08  6  5   738.49

 Norm of t1 vector:      0.14139879      S-energy:    -0.00491686      T1 diagnostic:  0.01797461
                                                                       D1 diagnostic:  0.05366924
 Norm of t2 vector:      0.51175474      P-energy:    -0.90001062
                                         Alpha-Beta:  -0.70581607
                                         Alpha-Alpha: -0.09856811
                                         Beta-Beta:   -0.09562643

 Singles amplitudes (print threshold =  0.500E-01):

         I         SYM. A    A   T(IA) [Beta-Beta]

        11         2         1      0.05259221

 Spin contamination <S**2-Sz**2-Sz>     0.00228294
 

 RESULTS
 =======

  Reference energy                   -586.914989613228
  UCCSD singles energy                 -0.004916856604
  UCCSD pair energy                    -0.900010615145
  UCCSD correlation energy             -0.904927471749
  Triples (T) contribution             -0.043427983082
  Total correlation energy             -0.948355454832
 
  RHF-UCCSD energy                   -587.819917084978
  RHF-UCCSD[T] energy                -587.865551927438
  RHF-UCCSD-T energy                 -587.862464313589
 !RHF-UCCSD(T) energy                -587.863345068060

 Program statistics:

 Available memory in ccsd:               999998418
 Min. memory needed in ccsd:              63308211
 Max. memory used in ccsd:                91377895
 Max. memory used in cckext:              80996267 (10 integral passes)
 Max. memory used in cckint:             236324996 ( 1 integral passes)



 **********************************************************************************************************************************
 DATASETS  * FILE   NREC   LENGTH (MB)   RECORD NAMES
              1      18       24.16       500      610      700      900      950      970     1001      129      960     1100   
                                          VAR    BASINP    GEOM    SYMINP    ZMAT    AOBASIS   BASIS     P2S    ABASIS      S 
                                         1400     1410     1200     1210     1080     1600     1650     1700   
                                           T        V       H0       H01     AOSYM     SMH    MOLCAS    OPER   

              2       8       12.00       500      610      700     1000      520     2100     1001     2101   
                                          VAR    BASINP    GEOM     BASIS   MCVARS     RHF     BASIS     RHF  

 PROGRAMS   *        TOTAL  UCCSD(T)        HF       INT  UCCSD(T)        HF       INT      FILE
 CPU TIMES  *      3655.94   2567.53     54.82    748.45    267.88      3.79     12.97      0.04
 REAL TIME  *      4501.95 SEC
 DISK USED  *        66.65 GB      
 SF USED    *        15.95 GB      
 GA USED    *         0.00 MB       (max)       0.00 MB       (current)
 **********************************************************************************************************************************
 SETTING EHF(2)         =      -586.91498961  AU                              
 SETTING ECOR_CCSDT(2)  =        -0.94835545  AU                              
 SETTING ECOR_MP2(2)    =        -0.90077927  AU                              

 
 Extrapolating energy using  ECORR and basissets AVTZ AVQZ

 *** Long output written to logfile /home/vallet/John-methylsulfonyl/Units/CH3SO2/geom-trans-CH3OSO/optg-freq-pbe0/CCSD-T/trans-CH3OSO.CCSD-T-CBS.log ***


 Extrapolating reference energy using E(n)=ECBS+A*(l+1)*exp(-9*sqrt(l))

 E(CBS)=  -586.91753258  A= 0.333942D+05

 Extrapolating correlation energy using function (n+ 0.5)^{-X} with X= 4.0
 
 L=3  E=    -0.89884038  EFIT=    -0.89884038
 L=4  E=    -0.94835545  EFIT=    -0.94835545

 E(CBS)=    -0.97693375  Coefficients:   11.7189

 BASIS           EREF            ECORR           ETOT
 AVTZ       -586.89484699     -0.89884038   -587.79368737
 AVQZ       -586.91498961     -0.94835545   -587.86334507
 CBS        -586.91753258     -0.97693375   -587.89446633
 


 **********************************************************************************************************************************
 DATASETS  * FILE   NREC   LENGTH (MB)   RECORD NAMES
              1      18       24.16       500      610      700      900      950      970     1001      129      960     1100   
                                          VAR    BASINP    GEOM    SYMINP    ZMAT    AOBASIS   BASIS     P2S    ABASIS      S 
                                         1400     1410     1200     1210     1080     1600     1650     1700   
                                           T        V       H0       H01     AOSYM     SMH    MOLCAS    OPER   

              2       8       12.00       500      610      700     1000      520     2100     1001     2101   
                                          VAR    BASINP    GEOM     BASIS   MCVARS     RHF     BASIS     RHF  

 PROGRAMS   *        TOTAL  EXTRAPOL  UCCSD(T)        HF       INT  UCCSD(T)        HF       INT      FILE
 CPU TIMES  *      3655.96      0.00   2567.53     54.82    748.45    267.88      3.79     12.97      0.04
 REAL TIME  *      4502.06 SEC
 DISK USED  *        66.65 GB      
 SF USED    *        15.95 GB      
 GA USED    *         0.00 MB       (max)       0.00 MB       (current)
 **********************************************************************************************************************************

 
 Extrapolating energy using  ECORR and basissets AVTZ AVQZ

 Extrapolating reference energy using E(n)=ECBS+A*(l+1)*exp(-9*sqrt(l))

 E(CBS)=  -586.91753258  A= 0.333942D+05

 Extrapolating correlation energy using function (n+ 0.5)^{-X} with X= 4.0
 
 L=3  E=    -0.84640250  EFIT=    -0.84640250
 L=4  E=    -0.90077927  EFIT=    -0.90077927

 E(CBS)=    -0.93216356  Coefficients:   12.8695

 BASIS           EREF            ECORR           ETOT
 AVTZ       -586.89484699     -0.84640250   -587.74124948
 AVQZ       -586.91498961     -0.90077927   -587.81576888
 CBS        -586.91753258     -0.93216356   -587.84969614
 


 **********************************************************************************************************************************
 DATASETS  * FILE   NREC   LENGTH (MB)   RECORD NAMES
              1      18       24.16       500      610      700      900      950      970     1001      129      960     1100   
                                          VAR    BASINP    GEOM    SYMINP    ZMAT    AOBASIS   BASIS     P2S    ABASIS      S 
                                         1400     1410     1200     1210     1080     1600     1650     1700   
                                           T        V       H0       H01     AOSYM     SMH    MOLCAS    OPER   

              2       8       12.00       500      610      700     1000      520     2100     1001     2101   
                                          VAR    BASINP    GEOM     BASIS   MCVARS     RHF     BASIS     RHF  

 PROGRAMS   *        TOTAL  EXTRAPOLEXTRAPOLAT  UCCSD(T)        HF       INT  UCCSD(T)        HF       INT      FILE
 CPU TIMES  *      3655.96      0.00      0.00   2567.53     54.82    748.45    267.88      3.79     12.97      0.04
 REAL TIME  *      4502.06 SEC
 DISK USED  *        66.65 GB      
 SF USED    *        15.95 GB      
 GA USED    *         0.00 MB       (max)       0.00 MB       (current)
 **********************************************************************************************************************************

 UCCSD(T)/aug-cc-pVTZ:aug-cc-pVQZ energy=   -587.849696137740

        UCCSD(T)        HF-SCF          UCCSD(T)        HF-SCF  
   -587.86334507   -586.91498961   -587.79368737   -586.89484699
 **********************************************************************************************************************************
 Molpro calculation terminated
 Variable memory released
