 Molden2AIM, Version 4.2.1 (05/11/2018)           Time: Fri Dec 14 17:37:39 2018
GAUSSIAN              5 MOL ORBITALS   4429 PRIMITIVES       13 NUCLEI
  C    1    (CENTRE  1)   2.86059182  5.80083560 -3.76539269  CHARGE =  6.0
  S    2    (CENTRE  2)   2.58603351  5.24742930 -0.39151346  CHARGE = 16.0
  O    3    (CENTRE  3)  -0.25377132  4.73933864 -0.11795670  CHARGE =  8.0
  Np   4    (CENTRE  4)   0.00000000  0.00000000  0.00000000  CHARGE = 93.0
  O    5    (CENTRE  5)   0.23661261 -4.80910732 -0.00997775  CHARGE =  8.0
  S    6    (CENTRE  6)  -2.61016531 -5.30070068 -0.08089918  CHARGE = 16.0
  O    7    (CENTRE  7)  -3.95595267 -2.74424138 -0.01460758  CHARGE =  8.0
  O    8    (CENTRE  8)   3.91345273  2.68626458 -0.11553786  CHARGE =  8.0
  O    9    (CENTRE  9)   0.00000000  0.00000000  3.34878367  CHARGE =  8.0
  O   10    (CENTRE 10)  -0.00644397 -0.01215094 -3.36172829  CHARGE =  8.0
  H   11    (CENTRE 11)   4.85797564  6.01696357 -4.22385914  CHARGE =  1.0
  H   12    (CENTRE 12)   2.04816076  4.15329677 -4.70005123  CHARGE =  1.0
  H   13    (CENTRE 13)   1.81687718  7.51712266 -4.22520085  CHARGE =  1.0
CENTRE ASSIGNMENTS    1  1  1  1  1  1  1  1  1  1  1  1  1  1  1  1  1  1  1  1
CENTRE ASSIGNMENTS    1  1  1  1  1  1  1  1  1  1  1  1  1  1  1  1  1  1  1  1
CENTRE ASSIGNMENTS    1  1  1  1  1  1  1  1  1  1  1  1  1  1  1  1  1  1  1  1
CENTRE ASSIGNMENTS    1  1  1  1  1  1  1  1  1  1  1  1  1  1  1  1  1  1  1  1
CENTRE ASSIGNMENTS    1  1  1  1  1  1  1  1  1  1  1  1  1  1  1  1  1  1  1  1
CENTRE ASSIGNMENTS    1  1  1  1  1  1  1  1  1  1  1  1  1  1  1  1  1  1  1  1
CENTRE ASSIGNMENTS    1  1  1  1  1  1  1  1  1  1  1  1  1  1  1  1  1  1  1  1
CENTRE ASSIGNMENTS    1  1  1  1  1  1  1  1  1  1  1  1  1  1  1  1  1  1  1  1
CENTRE ASSIGNMENTS    1  1  1  1  1  1  1  1  1  1  1  1  1  1  1  1  1  1  1  1
CENTRE ASSIGNMENTS    1  1  1  1  1  1  1  1  1  1  1  1  1  1  1  1  1  1  1  1
CENTRE ASSIGNMENTS    1  1  1  1  1  1  1  1  1  1  1  1  1  1  1  2  2  2  2  2
CENTRE ASSIGNMENTS    2  2  2  2  2  2  2  2  2  2  2  2  2  2  2  2  2  2  2  2
CENTRE ASSIGNMENTS    2  2  2  2  2  2  2  2  2  2  2  2  2  2  2  2  2  2  2  2
CENTRE ASSIGNMENTS    2  2  2  2  2  2  2  2  2  2  2  2  2  2  2  2  2  2  2  2
CENTRE ASSIGNMENTS    2  2  2  2  2  2  2  2  2  2  2  2  2  2  2  2  2  2  2  2
CENTRE ASSIGNMENTS    2  2  2  2  2  2  2  2  2  2  2  2  2  2  2  2  2  2  2  2
CENTRE ASSIGNMENTS    2  2  2  2  2  2  2  2  2  2  2  2  2  2  2  2  2  2  2  2
CENTRE ASSIGNMENTS    2  2  2  2  2  2  2  2  2  2  2  2  2  2  2  2  2  2  2  2
CENTRE ASSIGNMENTS    2  2  2  2  2  2  2  2  2  2  2  2  2  2  2  2  2  2  2  2
CENTRE ASSIGNMENTS    2  2  2  2  2  2  2  2  2  2  2  2  2  2  2  2  2  2  2  2
CENTRE ASSIGNMENTS    2  2  2  2  2  2  2  2  2  2  2  2  2  2  2  2  2  2  2  2
CENTRE ASSIGNMENTS    2  2  2  2  2  2  2  2  2  2  2  2  2  2  2  2  2  2  2  2
CENTRE ASSIGNMENTS    2  2  2  2  2  2  2  2  2  2  2  2  2  2  2  2  2  2  2  2
CENTRE ASSIGNMENTS    2  2  2  2  2  2  2  2  2  2  2  2  2  2  2  2  2  2  2  2
CENTRE ASSIGNMENTS    2  2  2  2  2  2  2  2  2  2  2  2  2  2  2  2  2  2  2  2
CENTRE ASSIGNMENTS    2  2  2  2  2  2  2  2  2  2  2  2  2  2  2  2  2  2  2  2
CENTRE ASSIGNMENTS    2  2  2  2  2  2  2  2  2  2  2  2  2  2  2  2  2  2  2  2
CENTRE ASSIGNMENTS    2  2  2  2  3  3  3  3  3  3  3  3  3  3  3  3  3  3  3  3
CENTRE ASSIGNMENTS    3  3  3  3  3  3  3  3  3  3  3  3  3  3  3  3  3  3  3  3
CENTRE ASSIGNMENTS    3  3  3  3  3  3  3  3  3  3  3  3  3  3  3  3  3  3  3  3
CENTRE ASSIGNMENTS    3  3  3  3  3  3  3  3  3  3  3  3  3  3  3  3  3  3  3  3
CENTRE ASSIGNMENTS    3  3  3  3  3  3  3  3  3  3  3  3  3  3  3  3  3  3  3  3
CENTRE ASSIGNMENTS    3  3  3  3  3  3  3  3  3  3  3  3  3  3  3  3  3  3  3  3
CENTRE ASSIGNMENTS    3  3  3  3  3  3  3  3  3  3  3  3  3  3  3  3  3  3  3  3
CENTRE ASSIGNMENTS    3  3  3  3  3  3  3  3  3  3  3  3  3  3  3  3  3  3  3  3
CENTRE ASSIGNMENTS    3  3  3  3  3  3  3  3  3  3  3  3  3  3  3  3  3  3  3  3
CENTRE ASSIGNMENTS    3  3  3  3  3  3  3  3  3  3  3  3  3  3  3  3  3  3  3  3
CENTRE ASSIGNMENTS    3  3  3  3  3  3  3  3  3  3  3  3  3  3  3  3  3  3  3  4
CENTRE ASSIGNMENTS    4  4  4  4  4  4  4  4  4  4  4  4  4  4  4  4  4  4  4  4
CENTRE ASSIGNMENTS    4  4  4  4  4  4  4  4  4  4  4  4  4  4  4  4  4  4  4  4
CENTRE ASSIGNMENTS    4  4  4  4  4  4  4  4  4  4  4  4  4  4  4  4  4  4  4  4
CENTRE ASSIGNMENTS    4  4  4  4  4  4  4  4  4  4  4  4  4  4  4  4  4  4  4  4
CENTRE ASSIGNMENTS    4  4  4  4  4  4  4  4  4  4  4  4  4  4  4  4  4  4  4  4
CENTRE ASSIGNMENTS    4  4  4  4  4  4  4  4  4  4  4  4  4  4  4  4  4  4  4  4
CENTRE ASSIGNMENTS    4  4  4  4  4  4  4  4  4  4  4  4  4  4  4  4  4  4  4  4
CENTRE ASSIGNMENTS    4  4  4  4  4  4  4  4  4  4  4  4  4  4  4  4  4  4  4  4
CENTRE ASSIGNMENTS    4  4  4  4  4  4  4  4  4  4  4  4  4  4  4  4  4  4  4  4
CENTRE ASSIGNMENTS    4  4  4  4  4  4  4  4  4  4  4  4  4  4  4  4  4  4  4  4
CENTRE ASSIGNMENTS    4  4  4  4  4  4  4  4  4  4  4  4  4  4  4  4  4  4  4  4
CENTRE ASSIGNMENTS    4  4  4  4  4  4  4  4  4  4  4  4  4  4  4  4  4  4  4  4
CENTRE ASSIGNMENTS    4  4  4  4  4  4  4  4  4  4  4  4  4  4  4  4  4  4  4  4
CENTRE ASSIGNMENTS    4  4  4  4  4  4  4  4  4  4  4  4  4  4  4  4  4  4  4  4
CENTRE ASSIGNMENTS    4  4  4  4  4  4  4  4  4  4  4  4  4  4  4  4  4  4  4  4
CENTRE ASSIGNMENTS    4  4  4  4  4  4  4  4  4  4  4  4  4  4  4  4  4  4  4  4
CENTRE ASSIGNMENTS    4  4  4  4  4  4  4  4  4  4  4  4  4  4  4  4  4  4  4  4
CENTRE ASSIGNMENTS    4  4  4  4  4  4  4  4  4  4  4  4  4  4  4  4  4  4  4  4
CENTRE ASSIGNMENTS    4  4  4  4  4  4  4  4  4  4  4  4  4  4  4  4  4  4  4  4
CENTRE ASSIGNMENTS    4  4  4  4  4  4  4  4  4  4  4  4  4  4  4  4  4  4  4  4
CENTRE ASSIGNMENTS    4  4  4  4  4  4  4  4  4  4  4  4  4  4  4  4  4  4  4  4
CENTRE ASSIGNMENTS    4  4  4  4  4  4  4  4  4  4  4  4  4  4  4  4  4  4  4  4
CENTRE ASSIGNMENTS    4  4  4  4  4  4  4  4  4  4  4  4  4  4  4  4  4  4  4  4
CENTRE ASSIGNMENTS    4  4  4  4  4  4  4  4  4  4  4  4  4  4  4  4  4  4  4  4
CENTRE ASSIGNMENTS    4  4  4  4  4  4  4  4  4  4  4  4  4  4  4  4  4  4  4  4
CENTRE ASSIGNMENTS    4  4  4  4  4  4  4  4  4  4  4  4  4  4  4  4  4  4  4  4
CENTRE ASSIGNMENTS    4  4  4  4  4  4  4  4  4  4  4  4  4  4  4  4  4  4  4  4
CENTRE ASSIGNMENTS    4  4  4  4  4  4  4  4  4  4  4  4  4  4  4  4  4  4  4  4
CENTRE ASSIGNMENTS    4  4  4  4  4  4  4  4  4  4  4  4  4  4  4  4  4  4  4  4
CENTRE ASSIGNMENTS    4  4  4  4  4  4  4  4  4  4  4  4  4  4  4  4  4  4  4  4
CENTRE ASSIGNMENTS    4  4  4  4  4  4  4  4  4  4  4  4  4  4  4  4  4  4  4  4
CENTRE ASSIGNMENTS    4  4  4  4  4  4  4  4  4  4  4  4  4  4  4  4  4  4  4  4
CENTRE ASSIGNMENTS    4  4  4  4  4  4  4  4  4  4  4  4  4  4  4  4  4  4  4  4
CENTRE ASSIGNMENTS    4  4  4  4  4  4  4  4  4  4  4  4  4  4  4  4  4  4  4  4
CENTRE ASSIGNMENTS    4  4  4  4  4  4  4  4  4  4  4  4  4  4  4  4  4  4  4  4
CENTRE ASSIGNMENTS    4  4  4  4  4  4  4  4  4  4  4  4  4  4  4  4  4  4  4  4
CENTRE ASSIGNMENTS    4  4  4  4  4  4  4  4  4  4  4  4  4  4  4  4  4  4  4  4
CENTRE ASSIGNMENTS    4  4  4  4  4  4  4  4  4  4  4  4  4  4  4  4  4  4  4  4
CENTRE ASSIGNMENTS    4  4  4  4  4  4  4  4  4  4  4  4  4  4  4  4  4  4  4  4
CENTRE ASSIGNMENTS    4  4  4  4  4  4  4  4  4  4  4  4  4  4  4  4  4  4  4  4
CENTRE ASSIGNMENTS    4  4  4  4  4  4  4  4  4  4  4  4  4  4  4  4  4  4  4  4
CENTRE ASSIGNMENTS    4  4  4  4  4  4  4  4  4  4  4  4  4  4  4  4  4  4  4  4
CENTRE ASSIGNMENTS    4  4  4  4  4  4  4  4  4  4  4  4  4  4  4  4  4  4  4  4
CENTRE ASSIGNMENTS    4  4  4  4  4  4  4  4  4  4  4  4  4  4  4  4  4  4  4  4
CENTRE ASSIGNMENTS    4  4  4  4  4  4  4  4  4  4  4  4  4  4  4  4  4  4  4  4
CENTRE ASSIGNMENTS    4  4  4  4  4  4  4  4  4  4  4  4  4  4  4  4  4  4  4  4
CENTRE ASSIGNMENTS    4  4  4  4  4  4  4  4  4  4  4  4  4  4  4  4  4  4  4  4
CENTRE ASSIGNMENTS    4  4  4  4  4  4  4  4  4  4  4  4  4  4  4  4  4  4  4  4
CENTRE ASSIGNMENTS    4  4  4  4  4  4  4  4  4  4  4  4  4  4  4  4  4  4  4  4
CENTRE ASSIGNMENTS    4  4  4  4  4  4  4  4  4  4  4  4  4  4  4  4  4  4  4  4
CENTRE ASSIGNMENTS    4  4  4  4  4  4  4  4  4  4  4  4  4  4  4  4  4  4  4  4
CENTRE ASSIGNMENTS    4  4  4  4  4  4  4  4  4  4  4  4  4  4  4  4  4  4  4  4
CENTRE ASSIGNMENTS    4  4  4  4  4  4  4  4  4  4  4  4  4  4  4  4  4  4  4  4
CENTRE ASSIGNMENTS    4  4  4  4  4  4  4  4  4  4  4  4  4  4  4  4  4  4  4  4
CENTRE ASSIGNMENTS    4  4  4  4  4  4  4  4  4  4  4  4  4  4  4  4  4  4  4  4
CENTRE ASSIGNMENTS    4  4  4  4  4  4  4  4  4  4  4  4  4  4  4  4  4  4  4  4
CENTRE ASSIGNMENTS    4  4  4  4  4  4  4  4  4  4  4  4  4  4  4  4  4  4  4  4
CENTRE ASSIGNMENTS    4  4  4  4  4  4  4  4  4  4  4  4  4  4  4  4  4  4  4  4
CENTRE ASSIGNMENTS    4  4  4  4  4  4  4  4  4  4  4  4  4  4  4  4  4  4  4  4
CENTRE ASSIGNMENTS    4  4  4  4  4  4  4  4  4  4  4  4  4  4  4  4  4  4  4  4
CENTRE ASSIGNMENTS    4  4  4  4  4  4  4  4  4  4  4  4  4  4  4  4  4  4  4  4
CENTRE ASSIGNMENTS    4  4  4  4  4  4  4  4  4  4  4  4  4  4  4  4  4  4  4  4
CENTRE ASSIGNMENTS    4  4  4  4  4  4  4  4  4  4  4  4  4  4  4  4  4  4  4  4
CENTRE ASSIGNMENTS    4  4  4  4  4  4  4  4  4  4  4  4  4  4  4  4  4  4  4  4
CENTRE ASSIGNMENTS    4  4  4  4  4  4  4  4  4  4  4  4  4  4  4  4  4  4  4  4
CENTRE ASSIGNMENTS    4  4  4  4  4  4  4  4  4  4  4  4  4  4  4  4  4  4  4  4
CENTRE ASSIGNMENTS    4  4  4  4  4  4  4  4  4  4  4  4  4  4  4  4  4  4  4  4
CENTRE ASSIGNMENTS    4  4  4  4  4  4  4  4  4  4  4  4  4  4  4  4  4  4  4  4
CENTRE ASSIGNMENTS    4  4  4  4  4  4  4  4  4  4  4  4  4  4  4  4  4  4  4  4
CENTRE ASSIGNMENTS    4  4  4  4  4  4  4  4  4  4  4  4  4  4  4  4  4  4  4  4
CENTRE ASSIGNMENTS    4  4  4  4  4  4  4  4  4  4  4  4  4  4  4  4  4  4  4  4
CENTRE ASSIGNMENTS    4  4  4  4  4  4  4  4  4  4  4  4  4  4  4  4  4  4  4  4
CENTRE ASSIGNMENTS    4  4  4  4  4  4  4  4  4  4  4  4  4  4  4  4  4  4  4  4
CENTRE ASSIGNMENTS    4  4  4  4  4  4  4  4  4  4  4  4  4  4  4  4  4  4  4  4
CENTRE ASSIGNMENTS    4  4  4  4  4  4  4  4  4  4  4  4  4  4  4  4  4  4  4  4
CENTRE ASSIGNMENTS    4  4  4  4  4  4  4  4  4  4  4  4  4  4  4  4  4  4  4  4
CENTRE ASSIGNMENTS    4  4  4  4  4  4  4  4  4  4  4  4  4  4  4  4  4  4  4  4
CENTRE ASSIGNMENTS    4  4  4  4  4  4  4  4  4  4  4  4  4  4  4  4  4  4  4  4
CENTRE ASSIGNMENTS    4  4  4  4  4  4  4  4  4  4  4  4  4  4  4  4  4  4  4  4
CENTRE ASSIGNMENTS    4  4  4  4  4  4  4  4  4  4  4  4  4  4  4  4  4  4  4  4
CENTRE ASSIGNMENTS    4  4  4  4  4  4  4  4  4  4  4  4  4  4  4  4  4  4  4  4
CENTRE ASSIGNMENTS    4  4  4  4  4  4  4  4  4  4  4  4  4  4  4  4  4  4  4  4
CENTRE ASSIGNMENTS    4  4  4  4  4  4  4  4  4  4  4  4  4  4  4  4  4  4  4  4
CENTRE ASSIGNMENTS    4  4  4  4  4  4  4  4  4  4  4  4  4  4  4  4  4  4  4  4
CENTRE ASSIGNMENTS    4  4  4  4  4  4  4  4  4  4  4  4  4  4  4  4  4  4  4  4
CENTRE ASSIGNMENTS    4  4  4  4  4  4  4  4  4  4  4  4  4  4  4  4  4  4  4  4
CENTRE ASSIGNMENTS    4  4  4  4  4  4  4  4  4  4  4  4  4  4  4  4  4  4  4  4
CENTRE ASSIGNMENTS    4  4  4  4  4  4  4  4  4  4  4  4  4  4  4  4  4  4  4  4
CENTRE ASSIGNMENTS    4  4  4  4  4  4  4  4  4  4  4  4  4  4  4  4  4  4  4  4
CENTRE ASSIGNMENTS    4  4  4  4  4  4  4  4  4  4  4  4  4  4  4  4  4  4  4  4
CENTRE ASSIGNMENTS    4  4  4  4  4  4  4  4  4  4  4  4  4  4  4  4  4  4  4  4
CENTRE ASSIGNMENTS    4  4  4  4  4  4  4  4  4  4  4  4  4  4  4  4  4  4  4  4
CENTRE ASSIGNMENTS    4  4  4  4  4  4  4  4  4  4  4  4  4  4  4  4  4  4  4  4
CENTRE ASSIGNMENTS    4  4  4  4  4  4  4  4  4  4  4  4  4  4  4  4  4  4  4  4
CENTRE ASSIGNMENTS    4  4  4  4  4  4  4  4  4  4  4  4  4  4  4  4  4  4  4  4
CENTRE ASSIGNMENTS    4  4  4  4  4  4  4  4  4  4  4  4  4  4  4  4  4  4  4  4
CENTRE ASSIGNMENTS    4  4  4  4  4  4  4  4  4  4  4  4  4  4  4  4  4  4  4  4
CENTRE ASSIGNMENTS    4  4  4  4  4  4  4  4  4  4  4  4  4  4  4  4  4  4  4  4
CENTRE ASSIGNMENTS    4  4  4  4  4  4  4  4  4  4  4  4  4  4  4  4  4  4  4  4
CENTRE ASSIGNMENTS    4  4  4  4  4  4  4  4  4  4  4  4  4  4  4  4  4  4  4  4
CENTRE ASSIGNMENTS    4  4  4  4  4  4  4  4  4  4  4  4  4  4  4  4  4  4  4  4
CENTRE ASSIGNMENTS    4  4  4  4  4  4  4  4  4  4  4  4  4  4  4  4  4  4  4  4
CENTRE ASSIGNMENTS    4  4  4  4  4  4  4  4  4  4  4  4  4  4  4  4  4  4  4  4
CENTRE ASSIGNMENTS    4  4  4  4  4  4  4  5  5  5  5  5  5  5  5  5  5  5  5  5
CENTRE ASSIGNMENTS    5  5  5  5  5  5  5  5  5  5  5  5  5  5  5  5  5  5  5  5
CENTRE ASSIGNMENTS    5  5  5  5  5  5  5  5  5  5  5  5  5  5  5  5  5  5  5  5
CENTRE ASSIGNMENTS    5  5  5  5  5  5  5  5  5  5  5  5  5  5  5  5  5  5  5  5
CENTRE ASSIGNMENTS    5  5  5  5  5  5  5  5  5  5  5  5  5  5  5  5  5  5  5  5
CENTRE ASSIGNMENTS    5  5  5  5  5  5  5  5  5  5  5  5  5  5  5  5  5  5  5  5
CENTRE ASSIGNMENTS    5  5  5  5  5  5  5  5  5  5  5  5  5  5  5  5  5  5  5  5
CENTRE ASSIGNMENTS    5  5  5  5  5  5  5  5  5  5  5  5  5  5  5  5  5  5  5  5
CENTRE ASSIGNMENTS    5  5  5  5  5  5  5  5  5  5  5  5  5  5  5  5  5  5  5  5
CENTRE ASSIGNMENTS    5  5  5  5  5  5  5  5  5  5  5  5  5  5  5  5  5  5  5  5
CENTRE ASSIGNMENTS    5  5  5  5  5  5  5  5  5  5  5  5  5  5  5  5  5  5  5  5
CENTRE ASSIGNMENTS    5  5  6  6  6  6  6  6  6  6  6  6  6  6  6  6  6  6  6  6
CENTRE ASSIGNMENTS    6  6  6  6  6  6  6  6  6  6  6  6  6  6  6  6  6  6  6  6
CENTRE ASSIGNMENTS    6  6  6  6  6  6  6  6  6  6  6  6  6  6  6  6  6  6  6  6
CENTRE ASSIGNMENTS    6  6  6  6  6  6  6  6  6  6  6  6  6  6  6  6  6  6  6  6
CENTRE ASSIGNMENTS    6  6  6  6  6  6  6  6  6  6  6  6  6  6  6  6  6  6  6  6
CENTRE ASSIGNMENTS    6  6  6  6  6  6  6  6  6  6  6  6  6  6  6  6  6  6  6  6
CENTRE ASSIGNMENTS    6  6  6  6  6  6  6  6  6  6  6  6  6  6  6  6  6  6  6  6
CENTRE ASSIGNMENTS    6  6  6  6  6  6  6  6  6  6  6  6  6  6  6  6  6  6  6  6
CENTRE ASSIGNMENTS    6  6  6  6  6  6  6  6  6  6  6  6  6  6  6  6  6  6  6  6
CENTRE ASSIGNMENTS    6  6  6  6  6  6  6  6  6  6  6  6  6  6  6  6  6  6  6  6
CENTRE ASSIGNMENTS    6  6  6  6  6  6  6  6  6  6  6  6  6  6  6  6  6  6  6  6
CENTRE ASSIGNMENTS    6  6  6  6  6  6  6  6  6  6  6  6  6  6  6  6  6  6  6  6
CENTRE ASSIGNMENTS    6  6  6  6  6  6  6  6  6  6  6  6  6  6  6  6  6  6  6  6
CENTRE ASSIGNMENTS    6  6  6  6  6  6  6  6  6  6  6  6  6  6  6  6  6  6  6  6
CENTRE ASSIGNMENTS    6  6  6  6  6  6  6  6  6  6  6  6  6  6  6  6  6  6  6  6
CENTRE ASSIGNMENTS    6  6  6  6  6  6  6  6  6  6  6  6  6  6  6  6  6  6  6  6
CENTRE ASSIGNMENTS    6  6  6  6  6  6  6  6  6  6  6  7  7  7  7  7  7  7  7  7
CENTRE ASSIGNMENTS    7  7  7  7  7  7  7  7  7  7  7  7  7  7  7  7  7  7  7  7
CENTRE ASSIGNMENTS    7  7  7  7  7  7  7  7  7  7  7  7  7  7  7  7  7  7  7  7
CENTRE ASSIGNMENTS    7  7  7  7  7  7  7  7  7  7  7  7  7  7  7  7  7  7  7  7
CENTRE ASSIGNMENTS    7  7  7  7  7  7  7  7  7  7  7  7  7  7  7  7  7  7  7  7
CENTRE ASSIGNMENTS    7  7  7  7  7  7  7  7  7  7  7  7  7  7  7  7  7  7  7  7
CENTRE ASSIGNMENTS    7  7  7  7  7  7  7  7  7  7  7  7  7  7  7  7  7  7  7  7
CENTRE ASSIGNMENTS    7  7  7  7  7  7  7  7  7  7  7  7  7  7  7  7  7  7  7  7
CENTRE ASSIGNMENTS    7  7  7  7  7  7  7  7  7  7  7  7  7  7  7  7  7  7  7  7
CENTRE ASSIGNMENTS    7  7  7  7  7  7  7  7  7  7  7  7  7  7  7  7  7  7  7  7
CENTRE ASSIGNMENTS    7  7  7  7  7  7  7  7  7  7  7  7  7  7  7  7  7  7  7  7
CENTRE ASSIGNMENTS    7  7  7  7  7  7  8  8  8  8  8  8  8  8  8  8  8  8  8  8
CENTRE ASSIGNMENTS    8  8  8  8  8  8  8  8  8  8  8  8  8  8  8  8  8  8  8  8
CENTRE ASSIGNMENTS    8  8  8  8  8  8  8  8  8  8  8  8  8  8  8  8  8  8  8  8
CENTRE ASSIGNMENTS    8  8  8  8  8  8  8  8  8  8  8  8  8  8  8  8  8  8  8  8
CENTRE ASSIGNMENTS    8  8  8  8  8  8  8  8  8  8  8  8  8  8  8  8  8  8  8  8
CENTRE ASSIGNMENTS    8  8  8  8  8  8  8  8  8  8  8  8  8  8  8  8  8  8  8  8
CENTRE ASSIGNMENTS    8  8  8  8  8  8  8  8  8  8  8  8  8  8  8  8  8  8  8  8
CENTRE ASSIGNMENTS    8  8  8  8  8  8  8  8  8  8  8  8  8  8  8  8  8  8  8  8
CENTRE ASSIGNMENTS    8  8  8  8  8  8  8  8  8  8  8  8  8  8  8  8  8  8  8  8
CENTRE ASSIGNMENTS    8  8  8  8  8  8  8  8  8  8  8  8  8  8  8  8  8  8  8  8
CENTRE ASSIGNMENTS    8  8  8  8  8  8  8  8  8  8  8  8  8  8  8  8  8  8  8  8
CENTRE ASSIGNMENTS    8  9  9  9  9  9  9  9  9  9  9  9  9  9  9  9  9  9  9  9
CENTRE ASSIGNMENTS    9  9  9  9  9  9  9  9  9  9  9  9  9  9  9  9  9  9  9  9
CENTRE ASSIGNMENTS    9  9  9  9  9  9  9  9  9  9  9  9  9  9  9  9  9  9  9  9
CENTRE ASSIGNMENTS    9  9  9  9  9  9  9  9  9  9  9  9  9  9  9  9  9  9  9  9
CENTRE ASSIGNMENTS    9  9  9  9  9  9  9  9  9  9  9  9  9  9  9  9  9  9  9  9
CENTRE ASSIGNMENTS    9  9  9  9  9  9  9  9  9  9  9  9  9  9  9  9  9  9  9  9
CENTRE ASSIGNMENTS    9  9  9  9  9  9  9  9  9  9  9  9  9  9  9  9  9  9  9  9
CENTRE ASSIGNMENTS    9  9  9  9  9  9  9  9  9  9  9  9  9  9  9  9  9  9  9  9
CENTRE ASSIGNMENTS    9  9  9  9  9  9  9  9  9  9  9  9  9  9  9  9  9  9  9  9
CENTRE ASSIGNMENTS    9  9  9  9  9  9  9  9  9  9  9  9  9  9  9  9  9  9  9  9
CENTRE ASSIGNMENTS    9  9  9  9  9  9  9  9  9  9  9  9  9  9  9  9 10 10 10 10
CENTRE ASSIGNMENTS   10 10 10 10 10 10 10 10 10 10 10 10 10 10 10 10 10 10 10 10
CENTRE ASSIGNMENTS   10 10 10 10 10 10 10 10 10 10 10 10 10 10 10 10 10 10 10 10
CENTRE ASSIGNMENTS   10 10 10 10 10 10 10 10 10 10 10 10 10 10 10 10 10 10 10 10
CENTRE ASSIGNMENTS   10 10 10 10 10 10 10 10 10 10 10 10 10 10 10 10 10 10 10 10
CENTRE ASSIGNMENTS   10 10 10 10 10 10 10 10 10 10 10 10 10 10 10 10 10 10 10 10
CENTRE ASSIGNMENTS   10 10 10 10 10 10 10 10 10 10 10 10 10 10 10 10 10 10 10 10
CENTRE ASSIGNMENTS   10 10 10 10 10 10 10 10 10 10 10 10 10 10 10 10 10 10 10 10
CENTRE ASSIGNMENTS   10 10 10 10 10 10 10 10 10 10 10 10 10 10 10 10 10 10 10 10
CENTRE ASSIGNMENTS   10 10 10 10 10 10 10 10 10 10 10 10 10 10 10 10 10 10 10 10
CENTRE ASSIGNMENTS   10 10 10 10 10 10 10 10 10 10 10 10 10 10 10 10 10 10 10 10
CENTRE ASSIGNMENTS   10 10 10 10 10 10 10 10 10 10 10 11 11 11 11 11 11 11 11 11
CENTRE ASSIGNMENTS   11 11 11 11 11 11 11 11 11 11 11 11 11 11 11 11 11 11 11 11
CENTRE ASSIGNMENTS   11 11 11 11 11 11 11 11 11 11 11 11 11 11 11 11 11 11 11 11
CENTRE ASSIGNMENTS   11 11 11 11 11 11 11 11 11 11 11 11 11 11 11 11 11 12 12 12
CENTRE ASSIGNMENTS   12 12 12 12 12 12 12 12 12 12 12 12 12 12 12 12 12 12 12 12
CENTRE ASSIGNMENTS   12 12 12 12 12 12 12 12 12 12 12 12 12 12 12 12 12 12 12 12
CENTRE ASSIGNMENTS   12 12 12 12 12 12 12 12 12 12 12 12 12 12 12 12 12 12 12 12
CENTRE ASSIGNMENTS   12 12 12 13 13 13 13 13 13 13 13 13 13 13 13 13 13 13 13 13
CENTRE ASSIGNMENTS   13 13 13 13 13 13 13 13 13 13 13 13 13 13 13 13 13 13 13 13
CENTRE ASSIGNMENTS   13 13 13 13 13 13 13 13 13 13 13 13 13 13 13 13 13 13 13 13
CENTRE ASSIGNMENTS   13 13 13 13 13 13 13 13 13
TYPE ASSIGNMENTS      1  1  1  1  1  1  1  1  1  1  1  1  1  1  1  1  1  1  1  1
TYPE ASSIGNMENTS      1  1  1  1  1  1  1  1  1  1  1  1  1  1  1  1  1  1  1  1
TYPE ASSIGNMENTS      1  1  1  1  1  1  1  1  1  1  1  1  1  1  1  1  2  2  2  2
TYPE ASSIGNMENTS      2  2  2  2  2  3  3  3  3  3  3  3  3  3  4  4  4  4  4  4
TYPE ASSIGNMENTS      4  4  4  2  2  2  2  2  2  2  2  2  3  3  3  3  3  3  3  3
TYPE ASSIGNMENTS      3  4  4  4  4  4  4  4  4  4  2  2  2  2  2  2  2  2  2  3
TYPE ASSIGNMENTS      3  3  3  3  3  3  3  3  4  4  4  4  4  4  4  4  4  5  5  5
TYPE ASSIGNMENTS      5  6  6  6  6  7  7  7  7  8  8  8  8  9  9  9  9 10 10 10
TYPE ASSIGNMENTS     10  5  5  5  5  6  6  6  6  7  7  7  7  8  8  8  8  9  9  9
TYPE ASSIGNMENTS      9 10 10 10 10 11 11 11 12 12 12 13 13 13 17 17 17 14 14 14
TYPE ASSIGNMENTS     15 15 15 18 18 18 19 19 19 16 16 16 20 20 20  1  1  1  1  1
TYPE ASSIGNMENTS      1  1  1  1  1  1  1  1  1  1  1  1  1  1  1  1  1  1  1  1
TYPE ASSIGNMENTS      1  1  1  1  1  1  1  1  1  1  1  1  1  1  1  1  1  1  1  1
TYPE ASSIGNMENTS      1  1  1  1  1  1  1  1  1  1  1  1  1  1  1  1  1  1  1  1
TYPE ASSIGNMENTS      1  1  1  1  1  1  1  1  1  1  1  1  1  1  1  1  1  1  1  1
TYPE ASSIGNMENTS      2  2  2  2  2  2  2  2  2  2  2  2  3  3  3  3  3  3  3  3
TYPE ASSIGNMENTS      3  3  3  3  4  4  4  4  4  4  4  4  4  4  4  4  2  2  2  2
TYPE ASSIGNMENTS      2  2  2  2  2  2  2  2  3  3  3  3  3  3  3  3  3  3  3  3
TYPE ASSIGNMENTS      4  4  4  4  4  4  4  4  4  4  4  4  2  2  2  2  2  2  2  2
TYPE ASSIGNMENTS      2  2  2  2  3  3  3  3  3  3  3  3  3  3  3  3  4  4  4  4
TYPE ASSIGNMENTS      4  4  4  4  4  4  4  4  2  2  2  2  2  2  2  2  2  2  2  2
TYPE ASSIGNMENTS      3  3  3  3  3  3  3  3  3  3  3  3  4  4  4  4  4  4  4  4
TYPE ASSIGNMENTS      4  4  4  4  5  5  5  5  5  6  6  6  6  6  7  7  7  7  7  8
TYPE ASSIGNMENTS      8  8  8  8  9  9  9  9  9 10 10 10 10 10  5  5  5  5  5  6
TYPE ASSIGNMENTS      6  6  6  6  7  7  7  7  7  8  8  8  8  8  9  9  9  9  9 10
TYPE ASSIGNMENTS     10 10 10 10 11 11 11 11 12 12 12 12 13 13 13 13 17 17 17 17
TYPE ASSIGNMENTS     14 14 14 14 15 15 15 15 18 18 18 18 19 19 19 19 16 16 16 16
TYPE ASSIGNMENTS     20 20 20 20  1  1  1  1  1  1  1  1  1  1  1  1  1  1  1  1
TYPE ASSIGNMENTS      1  1  1  1  1  1  1  1  1  1  1  1  1  1  1  1  1  1  1  1
TYPE ASSIGNMENTS      1  1  1  1  1  1  1  1  1  1  1  1  1  1  1  1  1  1  1  1
TYPE ASSIGNMENTS      2  2  2  2  2  2  2  2  2  3  3  3  3  3  3  3  3  3  4  4
TYPE ASSIGNMENTS      4  4  4  4  4  4  4  2  2  2  2  2  2  2  2  2  3  3  3  3
TYPE ASSIGNMENTS      3  3  3  3  3  4  4  4  4  4  4  4  4  4  2  2  2  2  2  2
TYPE ASSIGNMENTS      2  2  2  3  3  3  3  3  3  3  3  3  4  4  4  4  4  4  4  4
TYPE ASSIGNMENTS      4  5  5  5  5  6  6  6  6  7  7  7  7  8  8  8  8  9  9  9
TYPE ASSIGNMENTS      9 10 10 10 10  5  5  5  5  6  6  6  6  7  7  7  7  8  8  8
TYPE ASSIGNMENTS      8  9  9  9  9 10 10 10 10 11 11 11 12 12 12 13 13 13 17 17
TYPE ASSIGNMENTS     17 14 14 14 15 15 15 18 18 18 19 19 19 16 16 16 20 20 20  1
TYPE ASSIGNMENTS      1  1  1  1  1  1  1  1  1  1  1  1  1  1  1  1  1  1  1  1
TYPE ASSIGNMENTS      1  1  1  1  1  1  1  1  1  1  1  1  1  1  1  1  1  1  1  1
TYPE ASSIGNMENTS      1  1  1  1  1  1  1  1  1  1  1  1  1  1  1  1  1  1  1  1
TYPE ASSIGNMENTS      1  1  1  1  1  1  1  1  1  1  1  1  1  1  1  1  1  1  1  1
TYPE ASSIGNMENTS      1  1  1  1  1  1  1  1  1  1  1  1  1  1  1  1  1  1  1  1
TYPE ASSIGNMENTS      1  1  1  1  1  1  1  1  1  1  1  1  1  1  1  1  1  1  1  1
TYPE ASSIGNMENTS      1  1  1  1  1  1  1  1  1  1  1  1  1  1  1  1  1  1  1  1
TYPE ASSIGNMENTS      1  1  1  1  1  1  1  1  1  1  1  1  1  1  1  1  1  1  1  1
TYPE ASSIGNMENTS      1  1  1  1  1  1  1  1  1  1  1  1  1  1  1  1  1  1  1  1
TYPE ASSIGNMENTS      1  1  1  1  1  1  1  1  1  1  1  1  1  1  1  1  1  1  1  1
TYPE ASSIGNMENTS      1  1  1  1  1  1  1  1  1  1  1  1  1  1  1  1  1  1  1  1
TYPE ASSIGNMENTS      1  1  1  1  1  1  1  1  1  1  1  1  1  2  2  2  2  2  2  2
TYPE ASSIGNMENTS      2  2  2  2  2  2  2  2  2  2  2  2  2  2  2  2  3  3  3  3
TYPE ASSIGNMENTS      3  3  3  3  3  3  3  3  3  3  3  3  3  3  3  3  3  3  3  4
TYPE ASSIGNMENTS      4  4  4  4  4  4  4  4  4  4  4  4  4  4  4  4  4  4  4  4
TYPE ASSIGNMENTS      4  4  2  2  2  2  2  2  2  2  2  2  2  2  2  2  2  2  2  2
TYPE ASSIGNMENTS      2  2  2  2  2  3  3  3  3  3  3  3  3  3  3  3  3  3  3  3
TYPE ASSIGNMENTS      3  3  3  3  3  3  3  3  4  4  4  4  4  4  4  4  4  4  4  4
TYPE ASSIGNMENTS      4  4  4  4  4  4  4  4  4  4  4  2  2  2  2  2  2  2  2  2
TYPE ASSIGNMENTS      2  2  2  2  2  2  2  2  2  2  2  2  2  2  3  3  3  3  3  3
TYPE ASSIGNMENTS      3  3  3  3  3  3  3  3  3  3  3  3  3  3  3  3  3  4  4  4
TYPE ASSIGNMENTS      4  4  4  4  4  4  4  4  4  4  4  4  4  4  4  4  4  4  4  4
TYPE ASSIGNMENTS      2  2  2  2  2  2  2  2  2  2  2  2  2  2  2  2  2  2  2  2
TYPE ASSIGNMENTS      2  2  2  3  3  3  3  3  3  3  3  3  3  3  3  3  3  3  3  3
TYPE ASSIGNMENTS      3  3  3  3  3  3  4  4  4  4  4  4  4  4  4  4  4  4  4  4
TYPE ASSIGNMENTS      4  4  4  4  4  4  4  4  4  2  2  2  2  2  2  2  2  2  2  2
TYPE ASSIGNMENTS      2  2  2  2  2  2  2  2  2  2  2  2  3  3  3  3  3  3  3  3
TYPE ASSIGNMENTS      3  3  3  3  3  3  3  3  3  3  3  3  3  3  3  4  4  4  4  4
TYPE ASSIGNMENTS      4  4  4  4  4  4  4  4  4  4  4  4  4  4  4  4  4  4  2  2
TYPE ASSIGNMENTS      2  2  2  2  2  2  2  2  2  2  2  2  2  2  2  2  2  2  2  2
TYPE ASSIGNMENTS      2  3  3  3  3  3  3  3  3  3  3  3  3  3  3  3  3  3  3  3
TYPE ASSIGNMENTS      3  3  3  3  4  4  4  4  4  4  4  4  4  4  4  4  4  4  4  4
TYPE ASSIGNMENTS      4  4  4  4  4  4  4  2  2  2  2  2  2  2  2  2  2  2  2  2
TYPE ASSIGNMENTS      2  2  2  2  2  2  2  2  2  2  3  3  3  3  3  3  3  3  3  3
TYPE ASSIGNMENTS      3  3  3  3  3  3  3  3  3  3  3  3  3  4  4  4  4  4  4  4
TYPE ASSIGNMENTS      4  4  4  4  4  4  4  4  4  4  4  4  4  4  4  4  2  2  2  2
TYPE ASSIGNMENTS      2  2  2  2  2  2  2  2  2  2  2  2  2  2  2  2  2  2  2  3
TYPE ASSIGNMENTS      3  3  3  3  3  3  3  3  3  3  3  3  3  3  3  3  3  3  3  3
TYPE ASSIGNMENTS      3  3  4  4  4  4  4  4  4  4  4  4  4  4  4  4  4  4  4  4
TYPE ASSIGNMENTS      4  4  4  4  4  5  5  5  5  5  5  5  5  5  5  5  5  5  5  5
TYPE ASSIGNMENTS      5  5  6  6  6  6  6  6  6  6  6  6  6  6  6  6  6  6  6  7
TYPE ASSIGNMENTS      7  7  7  7  7  7  7  7  7  7  7  7  7  7  7  7  8  8  8  8
TYPE ASSIGNMENTS      8  8  8  8  8  8  8  8  8  8  8  8  8  9  9  9  9  9  9  9
TYPE ASSIGNMENTS      9  9  9  9  9  9  9  9  9  9 10 10 10 10 10 10 10 10 10 10
TYPE ASSIGNMENTS     10 10 10 10 10 10 10  5  5  5  5  5  5  5  5  5  5  5  5  5
TYPE ASSIGNMENTS      5  5  5  5  6  6  6  6  6  6  6  6  6  6  6  6  6  6  6  6
TYPE ASSIGNMENTS      6  7  7  7  7  7  7  7  7  7  7  7  7  7  7  7  7  7  8  8
TYPE ASSIGNMENTS      8  8  8  8  8  8  8  8  8  8  8  8  8  8  8  9  9  9  9  9
TYPE ASSIGNMENTS      9  9  9  9  9  9  9  9  9  9  9  9 10 10 10 10 10 10 10 10
TYPE ASSIGNMENTS     10 10 10 10 10 10 10 10 10  5  5  5  5  5  5  5  5  5  5  5
TYPE ASSIGNMENTS      5  5  5  5  5  5  6  6  6  6  6  6  6  6  6  6  6  6  6  6
TYPE ASSIGNMENTS      6  6  6  7  7  7  7  7  7  7  7  7  7  7  7  7  7  7  7  7
TYPE ASSIGNMENTS      8  8  8  8  8  8  8  8  8  8  8  8  8  8  8  8  8  9  9  9
TYPE ASSIGNMENTS      9  9  9  9  9  9  9  9  9  9  9  9  9  9 10 10 10 10 10 10
TYPE ASSIGNMENTS     10 10 10 10 10 10 10 10 10 10 10  5  5  5  5  5  5  5  5  5
TYPE ASSIGNMENTS      5  5  5  5  5  5  5  5  6  6  6  6  6  6  6  6  6  6  6  6
TYPE ASSIGNMENTS      6  6  6  6  6  7  7  7  7  7  7  7  7  7  7  7  7  7  7  7
TYPE ASSIGNMENTS      7  7  8  8  8  8  8  8  8  8  8  8  8  8  8  8  8  8  8  9
TYPE ASSIGNMENTS      9  9  9  9  9  9  9  9  9  9  9  9  9  9  9  9 10 10 10 10
TYPE ASSIGNMENTS     10 10 10 10 10 10 10 10 10 10 10 10 10  5  5  5  5  5  5  5
TYPE ASSIGNMENTS      5  5  5  5  5  5  5  5  5  5  6  6  6  6  6  6  6  6  6  6
TYPE ASSIGNMENTS      6  6  6  6  6  6  6  7  7  7  7  7  7  7  7  7  7  7  7  7
TYPE ASSIGNMENTS      7  7  7  7  8  8  8  8  8  8  8  8  8  8  8  8  8  8  8  8
TYPE ASSIGNMENTS      8  9  9  9  9  9  9  9  9  9  9  9  9  9  9  9  9  9 10 10
TYPE ASSIGNMENTS     10 10 10 10 10 10 10 10 10 10 10 10 10 10 10  5  5  5  5  5
TYPE ASSIGNMENTS      5  5  5  5  5  5  5  5  5  5  5  5  6  6  6  6  6  6  6  6
TYPE ASSIGNMENTS      6  6  6  6  6  6  6  6  6  7  7  7  7  7  7  7  7  7  7  7
TYPE ASSIGNMENTS      7  7  7  7  7  7  8  8  8  8  8  8  8  8  8  8  8  8  8  8
TYPE ASSIGNMENTS      8  8  8  9  9  9  9  9  9  9  9  9  9  9  9  9  9  9  9  9
TYPE ASSIGNMENTS     10 10 10 10 10 10 10 10 10 10 10 10 10 10 10 10 10 11 11 11
TYPE ASSIGNMENTS     11 11 11 11 11 11 11 11 11 11 12 12 12 12 12 12 12 12 12 12
TYPE ASSIGNMENTS     12 12 12 13 13 13 13 13 13 13 13 13 13 13 13 13 17 17 17 17
TYPE ASSIGNMENTS     17 17 17 17 17 17 17 17 17 14 14 14 14 14 14 14 14 14 14 14
TYPE ASSIGNMENTS     14 14 15 15 15 15 15 15 15 15 15 15 15 15 15 18 18 18 18 18
TYPE ASSIGNMENTS     18 18 18 18 18 18 18 18 19 19 19 19 19 19 19 19 19 19 19 19
TYPE ASSIGNMENTS     19 16 16 16 16 16 16 16 16 16 16 16 16 16 20 20 20 20 20 20
TYPE ASSIGNMENTS     20 20 20 20 20 20 20 11 11 11 11 11 11 11 11 11 11 11 11 11
TYPE ASSIGNMENTS     12 12 12 12 12 12 12 12 12 12 12 12 12 13 13 13 13 13 13 13
TYPE ASSIGNMENTS     13 13 13 13 13 13 17 17 17 17 17 17 17 17 17 17 17 17 17 14
TYPE ASSIGNMENTS     14 14 14 14 14 14 14 14 14 14 14 14 15 15 15 15 15 15 15 15
TYPE ASSIGNMENTS     15 15 15 15 15 18 18 18 18 18 18 18 18 18 18 18 18 18 19 19
TYPE ASSIGNMENTS     19 19 19 19 19 19 19 19 19 19 19 16 16 16 16 16 16 16 16 16
TYPE ASSIGNMENTS     16 16 16 16 20 20 20 20 20 20 20 20 20 20 20 20 20 11 11 11
TYPE ASSIGNMENTS     11 11 11 11 11 11 11 11 11 11 12 12 12 12 12 12 12 12 12 12
TYPE ASSIGNMENTS     12 12 12 13 13 13 13 13 13 13 13 13 13 13 13 13 17 17 17 17
TYPE ASSIGNMENTS     17 17 17 17 17 17 17 17 17 14 14 14 14 14 14 14 14 14 14 14
TYPE ASSIGNMENTS     14 14 15 15 15 15 15 15 15 15 15 15 15 15 15 18 18 18 18 18
TYPE ASSIGNMENTS     18 18 18 18 18 18 18 18 19 19 19 19 19 19 19 19 19 19 19 19
TYPE ASSIGNMENTS     19 16 16 16 16 16 16 16 16 16 16 16 16 16 20 20 20 20 20 20
TYPE ASSIGNMENTS     20 20 20 20 20 20 20 11 11 11 11 11 11 11 11 11 11 11 11 11
TYPE ASSIGNMENTS     12 12 12 12 12 12 12 12 12 12 12 12 12 13 13 13 13 13 13 13
TYPE ASSIGNMENTS     13 13 13 13 13 13 17 17 17 17 17 17 17 17 17 17 17 17 17 14
TYPE ASSIGNMENTS     14 14 14 14 14 14 14 14 14 14 14 14 15 15 15 15 15 15 15 15
TYPE ASSIGNMENTS     15 15 15 15 15 18 18 18 18 18 18 18 18 18 18 18 18 18 19 19
TYPE ASSIGNMENTS     19 19 19 19 19 19 19 19 19 19 19 16 16 16 16 16 16 16 16 16
TYPE ASSIGNMENTS     16 16 16 16 20 20 20 20 20 20 20 20 20 20 20 20 20 21 21 21