   This run of MOLCAS is using the pymolcas driver

                             OPE
                             OPE          NMOL  CASOP  ENMOLC A   SO
                 OPE        NMOLC        AS  OP EN  MO LC     AS  OP
                OPENM       OL CA        SO  PE NM  OL CA     SOP EN
                OP EN      MO   LC       AS  OP ENMOL  CASO   PENMOL
                OP  EN     MO   LC       AS  OP EN     MO     LC ASO
               OP   E  NMOL  C  AS       OP  EN MO     LC     AS  OP
               OP  E   NMO   LC AS        OPEN  MO     LCASOP EN   M
               O  PEN   MO  LCA  SO
            OPE   NMO   L   CAS    OP
        OPENMOL  CASOP     ENMOL   CASOPE
     OPENMOLCA   SOPENMOLCASOPEN   MOLCASOPE
    OPENMOLCAS   OP           EN   MOL    CAS
    OPENMOLCAS       OP  ENM        O     LCA
    OPENMOLCAS    OPEN  MOLCASO     P  E  NMO
    OPENMOLCAS     OP               E  N  MOL
    OPENMOLCA   SO           PENM   O  L  CAS    OPEN    MO    LCAS
    OPENMOLCA   SOP           ENM   O  L  CAS   OP  EN  MOLC  AS   O
    OPENMOLCA   SOPE           NM      O  LCA   S      OP  EN MO
    OPENMOLC                AS         O  PEN   M      OL  CA  SOPE
    OPENMO        LCASOPE  NMOL        C  ASO   P      ENMOLC     AS
    OPE     NMO      LCA  SO     P     E   NM   OL  CA SO  PE N   MO
          OPENMOLCA            SOPE   NMO        LCAS  O    P  ENMO
     OPENMOLCASOPENMOLCASOPENMOLCASOPENMOLCA
        OPENMOLCASOPENMOLCASOPENMOLCASOPE
            OPENMOLCASOPENMOLCASOPENM
               OPENMOLCASOPENMOLCA        version: 18.09
                   OPENMOLCASO
                       OPE                tag: 160-g170ac64-dirty

 OpenMolcas is free software; you can redistribute it and/or modify it
 under the terms of the GNU Lesser General Public License version 2.1.
 OpenMolcas is distributed in the hope that it will be useful, but it
 is provided "as is" and without any express or implied warranties.
 For more details see the full text of the license in the file
 LICENSE or in <http://www.gnu.org/licenses/>.

                 Copyright (C) The OpenMolcas Authors
           For the author list and the recommended citation,
                   consult the file CONTRIBUTORS.md

           *************************************************
           * pymolcas version py2.05                       *
           *   build e639e37c9a57315123c35f99e509df06      *
           *   (after the EMIL interpreter by V. Veryazov) *
           *************************************************

configuration info
------------------
C Compiler ID: Intel
C flags: -std=gnu99 -qopenmp
Fortran Compiler ID: Intel
Fortran flags: -fpp -mcmodel=large -i8 -r8 -heap-arrays -qopenmp
Definitions: _MOLCAS_;_I8_;_LINUX_;_MKL_;_FDE_
Parallel: OFF (GA=OFF)


   -------------------------------------------------------------------------------------------------------------------------------------
  |
  |           Project: NpO2_CH3SO2_SO2-m1-doublet.dump_SOOrb-2.VTZP
  |    Submitted from: /home/vallet/John-methylsulfonyl/NpO2_CH3SO2_SO2-m1/doublet-geom/optg-freq-pbe0/SO-XMS/NaturalOrbitals-openmolcas
  |      Scratch area: /state/partition2/vallet/523596.phlam-s-sakura/NpO2_CH3SO2_SO2-m1-doublet.dump_SOOrb-2.VTZP
  |   Save outputs to: /home/vallet/John-methylsulfonyl/NpO2_CH3SO2_SO2-m1/doublet-geom/optg-freq-pbe0/SO-XMS/NaturalOrbitals-openmolcas
  |            Molcas: /home/pcmt/OpenMolcas/OpenMolcas-20181120
  |
  | Scratch area is empty
  |
  |    MOLCAS_DRIVER = /home/pcmt/OpenMolcas/OpenMolcas-20181120/sbin/pymolcas
  |   MOLCAS_LICENSE = /home/pcmt/molcas/license
  |    MOLCAS_MOLDEN = ON
  |    MOLCAS_NPROCS = 1
  |    MOLCAS_SOURCE = /home/pcmt/OpenMolcas/OpenMolcas-20181120
  | MOLCAS_STRUCTURE = 0
  |
   -------------------------------------------------------------------------------------------------------------------------------------

++ ---------   Input file   ---------

&GATEWAY
   COORD=$HomeDir/NpO2_CH3SO2_SO2-m1-doublet.pbe0.optg-zaxis.xyz
   BASIS=ANO-RCC-VTZP, Np.ANO-RCC...9s8p6d4f2g.
   Group=Nosym
   ANGM=0.0 0.0 0.0
   RICD

&SEWARD

>>> COPY $HomeDir/NpO2_CH3SO2_SO2-m1-doublet.dump_SOOrb.VTZP.SOOrb.1 INPORB

&RASSCF
   Spin=3
   Symmetry=1
   Nactel=4 0 0
   Inactive=90
   Ras2=5
   CIRoots=1 1
 1
   LUMORB
   CIONLY

>>> COPY $Project.rasscf.molden $HomeDir/NpO2_CH3SO2_SO2-m1-doublet.dump_SOOrb.VTZP.SOOrb.1.molden

>>> COPY $HomeDir/NpO2_CH3SO2_SO2-m1-doublet.dump_SOOrb.VTZP.SODSOrb.Z.Z1 INPORB

&RASSCF
   Spin=3
   Symmetry=1
   Nactel=4 0 0
   Inactive=90
   Ras2=5
   CIRoots=1 1
 1
   LUMORB
   CIONLY

>>> COPY $Project.rasscf.molden $HomeDir/NpO2_CH3SO2_SO2-m1-doublet.dump_SOOrb.VTZP.SODSOrb.Z.Z1.molden

-- ----------------------------------

--- Start Module: gateway at Fri Dec 14 17:08:13 2018 ---
 
()()()()()()()()()()()()()()()()()()()()()()()()()()()()()()()()()()()()()()()()()()()()()()()()()()

                                              &GATEWAY

                                   only a single process is used
                       available to each process: 32 GB of memory, 8 threads
()()()()()()()()()()()()()()()()()()()()()()()()()()()()()()()()()()()()()()()()()()()()()()()()()()
 
 
++    Symmetry information:
      ---------------------
 
                    Character Table for C1 
 
                             E  
                    a        1  x, y, xy, Rz, z, xz, Ry, yz, Rx, I
--
 
 
++    Basis set information:
      ----------------------
 
 
      Basis set label: C.ANO-RCC...4S3P2D1F.
 
      Electronic valence basis set:
      ------------------
      Associated Effective Charge   6.000000 au
      Associated Actual Charge      6.000000 au
      Nuclear Model: Point charge
 
      Shell  nPrim  nBasis  Cartesian Spherical Contaminant
         s      14       4        X                  
         p       9       3        X                  
         d       4       2                 X         
         f       3       1                 X         
 
 
      Basis set label: S.ANO-RCC...5S4P2D1F.
 
      Electronic valence basis set:
      ------------------
      Associated Effective Charge  16.000000 au
      Associated Actual Charge     16.000000 au
      Nuclear Model: Point charge
 
      Shell  nPrim  nBasis  Cartesian Spherical Contaminant
         s      17       5        X                  
         p      12       4        X                  
         d       5       2                 X         
         f       4       1                 X         
 
 
      Basis set label: O.ANO-RCC...4S3P2D1F.
 
      Electronic valence basis set:
      ------------------
      Associated Effective Charge   8.000000 au
      Associated Actual Charge      8.000000 au
      Nuclear Model: Point charge
 
      Shell  nPrim  nBasis  Cartesian Spherical Contaminant
         s      14       4        X                  
         p       9       3        X                  
         d       4       2                 X         
         f       3       1                 X         
 
 
      Basis set label: NP.ANO-RCC...9S8P6D4F2G......
 
      Electronic valence basis set:
      ------------------
      Associated Effective Charge  93.000000 au
      Associated Actual Charge     93.000000 au
      Nuclear Model: Point charge
 
      Shell  nPrim  nBasis  Cartesian Spherical Contaminant
         s      26       9        X                  
         p      23       8        X                  
         d      17       6                 X         
         f      13       4                 X         
         g       5       2                 X         
 
 
      Basis set label: O.ANO-RCC...4S3P2D1F.
 
      Electronic valence basis set:
      ------------------
      Associated Effective Charge   8.000000 au
      Associated Actual Charge      8.000000 au
      Nuclear Model: Point charge
 
      Shell  nPrim  nBasis  Cartesian Spherical Contaminant
         s      14       4        X                  
         p       9       3        X                  
         d       4       2                 X         
         f       3       1                 X         
 
 
      Basis set label: S.ANO-RCC...5S4P2D1F.
 
      Electronic valence basis set:
      ------------------
      Associated Effective Charge  16.000000 au
      Associated Actual Charge     16.000000 au
      Nuclear Model: Point charge
 
      Shell  nPrim  nBasis  Cartesian Spherical Contaminant
         s      17       5        X                  
         p      12       4        X                  
         d       5       2                 X         
         f       4       1                 X         
 
 
      Basis set label: O.ANO-RCC...4S3P2D1F.
 
      Electronic valence basis set:
      ------------------
      Associated Effective Charge   8.000000 au
      Associated Actual Charge      8.000000 au
      Nuclear Model: Point charge
 
      Shell  nPrim  nBasis  Cartesian Spherical Contaminant
         s      14       4        X                  
         p       9       3        X                  
         d       4       2                 X         
         f       3       1                 X         
 
 
      Basis set label: H.ANO-RCC...3S2P1D.
 
      Electronic valence basis set:
      ------------------
      Associated Effective Charge   1.000000 au
      Associated Actual Charge      1.000000 au
      Nuclear Model: Point charge
 
      Shell  nPrim  nBasis  Cartesian Spherical Contaminant
         s       8       3        X                  
         p       4       2        X                  
         d       3       1                 X         
--
 
 
++    Molecular structure info:
      -------------------------
 
                    ************************************************ 
                    **** Cartesian Coordinates / Bohr, Angstrom **** 
                    ************************************************ 
 
     Center  Label                x              y              z                     x              y              z
        1      C1               2.860592       5.800836      -3.765393              1.513760       3.069670      -1.992560
        2      S2               2.586034       5.247429      -0.391513              1.368470       2.776820      -0.207180
        3      O3              -0.253771       4.739339      -0.117957             -0.134290       2.507950      -0.062420
        4      NP4              0.000000       0.000000       0.000000              0.000000       0.000000       0.000000
        5      O5               0.236613      -4.809107      -0.009978              0.125210      -2.544870      -0.005280
        6      S6              -2.610165      -5.300701      -0.080899             -1.381240      -2.805010      -0.042810
        7      O7              -3.955953      -2.744241      -0.014608             -2.093400      -1.452190      -0.007730
        8      O8               3.913453       2.686265      -0.115538              2.070910       1.421510      -0.061140
        9      O9               0.000000       0.000000       3.348784              0.000000       0.000000       1.772100
       10      O10             -0.006444      -0.012151      -3.361728             -0.003410      -0.006430      -1.778950
       11      H11              4.857976       6.016964      -4.223859              2.570730       3.184040      -2.235170
       12      H12              2.048161       4.153297      -4.700051              1.083840       2.197830      -2.487160
       13      H13              1.816877       7.517123      -4.225201              0.961450       3.977890      -2.235880
 
                    *************************************** 
                    *    InterNuclear Distances / Bohr    * 
                    *************************************** 
 
               1 C1            2 S2            3 O3            4 NP4           5 O5            6 S6    
    1 C1       0.000000
    2 S2       3.429971        0.000000
    3 O3       4.912212        2.897841        0.000000
    4 NP4      7.484040        5.863136        4.747594        0.000000
    5 O5      11.556786       10.334374        9.561640        4.814935        0.000000
    6 S6      12.913124       11.762653       10.312922        5.909055        2.889782        0.000000
    7 O7      11.556470       10.334720        8.349898        4.814627        4.673467        2.889814
    8 O8       4.912281        2.897890        4.645522        4.748103        8.349305       10.312633
    9 O9       9.614790        6.943551        5.877416        3.348784        5.870671        6.831772
   10 O10      6.494124        6.573150        5.758461        3.361756        5.856970        6.746255
   11 H11      2.060690        4.521148        6.679874        8.811627       12.502704       14.178391
   12 H12      2.061071        4.477715        5.161194        6.598130       10.276341       11.507156
   13 H13      2.060681        4.521092        5.373372        8.812519       13.122549       14.179934
 
               7 O7            8 O8            9 O9           10 O10          11 H11          12 H12   
    7 O7       0.000000
    8 O8       9.561805        0.000000
    9 O9       5.873059        5.876449        0.000000
   10 O10      5.853730        5.760624        6.710526        0.000000
   11 H11     13.121046        5.372521       10.823525        7.794618        0.000000
   12 H12     10.275154        5.162292        9.285935        4.833577        3.405154        0.000000
   13 H13     12.504009        6.679981       10.824667        7.794873        3.390982        3.405040
 
              13 H13   
   13 H13      0.000000
 
                    ******************************************* 
                    *    InterNuclear Distances / Angstrom    * 
                    ******************************************* 
 
               1 C1            2 S2            3 O3            4 NP4           5 O5            6 S6    
    1 C1       0.000000
    2 S2       1.815063        0.000000
    3 O3       2.599430        1.533471        0.000000
    4 NP4      3.960384        3.102638        2.512318        0.000000
    5 O5       6.115588        5.468715        5.059802        2.547954        0.000000
    6 S6       6.833331        6.224528        5.457363        3.126937        1.529207        0.000000
    7 O7       6.115421        5.468898        4.418576        2.547791        2.473092        1.529223
    8 O8       2.599467        1.533498        2.458304        2.512588        4.418262        5.457211
    9 O9       5.087928        3.674369        3.110195        1.772100        3.106625        3.615218
   10 O10      3.436543        3.478361        3.047247        1.778965        3.099375        3.569965
   11 H11      1.090470        2.392488        3.534837        4.662912        6.616146        7.502881
   12 H12      1.090672        2.369505        2.731186        3.491580        5.438005        6.089325
   13 H13      1.090465        2.392459        2.843466        4.663384        6.944154        7.503698
 
               7 O7            8 O8            9 O9           10 O10          11 H11          12 H12   
    7 O7       0.000000
    8 O8       5.059890        0.000000
    9 O9       3.107889        3.109683        0.000000
   10 O10      3.097660        3.048391        3.551057        0.000000
   11 H11      6.943358        2.843016        5.727563        4.124734        0.000000
   12 H12      5.437377        2.731767        4.913905        2.557819        1.801930        0.000000
   13 H13      6.616837        3.534894        5.728167        4.124869        1.794430        1.801870
 
              13 H13   
   13 H13      0.000000
 
                    ************************************** 
                    *    Valence Bond Angles / Degree    * 
                    ************************************** 
                          Atom centers                 Phi
                     11 H11      1 C1      12 H12      111.41
                     11 H11      1 C1      13 H13      110.73
                     12 H12      1 C1      13 H13      111.40
                      3 O3       2 S2       8 O8       106.56
                      5 O5       6 S6       7 O7       107.92
--
 
 
            Nuclear Potential Energy           2276.74376528 au
 
--- Stop Module: gateway at Fri Dec 14 17:09:38 2018 /rc=_RC_ALL_IS_WELL_ ---
*** files: NpO2_CH3SO2_SO2-m1-doublet.dump_SOOrb-2.VTZP.RICDLib xmldump
    saved to directory /home/vallet/John-methylsulfonyl/NpO2_CH3SO2_SO2-m1/doublet-geom/optg-freq-pbe0/SO-XMS/NaturalOrbitals-openmolcas
--- Module gateway spent 1 minute 24 seconds ---

--- Start Module: seward at Fri Dec 14 17:09:38 2018 ---
 
()()()()()()()()()()()()()()()()()()()()()()()()()()()()()()()()()()()()()()()()()()()()()()()()()()

                                              &SEWARD

                                   only a single process is used
                       available to each process: 32 GB of memory, 8 threads
()()()()()()()()()()()()()()()()()()()()()()()()()()()()()()()()()()()()()()()()()()()()()()()()()()
 
               SEWARD will generate:
                  Multipole Moment integrals up to order  2
                  Kinetic Energy integrals
                  Nuclear Attraction integrals (point charge)
                  One-Electron Hamiltonian integrals
                  Velocity integrals
                  Relativistic Douglas-Kroll-Hess integrals:
                    - Parametrization         : EXP
                    - DKH order of Hamiltonian: 2
                    - DKH order of Properties : 0
                         - multipole moment operators
                         - electric potential operators
                         - contact operators
                  Orbital angular momentum around ( 0.0000  0.0000  0.0000 )
                  Atomic mean-field integrals
                  RI decomposed two-electron repulsion integrals stored Cholesky style
                   - acCD auxiliary basis
                   - CD Threshold:   0.10E-03
 
                   Integrals are discarded if absolute value <: 0.10E-13
                   Integral cutoff threshold is set to       <: 0.10E-15
 
            Nuclear Potential Energy           2276.74376528 au
 
 
      Basis set specifications :
      Symmetry species         a  
      Basis functions          429
 
 
 Post_2Center_RI
 Detected lin. dependences in the auxiliary basis.
 # of AuxBas before l. d. removal:   4011
 # of AuxBas after  l. d. removal:   3992
 
 
  Input file to MOLDEN was generated!
 
--- Stop Module: seward at Fri Dec 14 17:15:02 2018 /rc=_RC_ALL_IS_WELL_ ---
*** files: NpO2_CH3SO2_SO2-m1-doublet.dump_SOOrb-2.VTZP.GssOrb NpO2_CH3SO2_SO2-m1-doublet.dump_SOOrb-2.VTZP.guessorb.h5 NpO2_CH3SO2_SO2-m1-doublet.dump_SOOrb-2.VTZP.guessorb.molden
           xmldump
    saved to directory /home/vallet/John-methylsulfonyl/NpO2_CH3SO2_SO2-m1/doublet-geom/optg-freq-pbe0/SO-XMS/NaturalOrbitals-openmolcas
--- Module seward spent 5 minutes 24 seconds ---

>>> COPY /home/vallet/John-methylsulfonyl/NpO2_CH3SO2_SO2-m1/doublet-geom/optg-freq-pbe0/SO-XMS/NaturalOrbitals-openmolcas/NpO2_CH3SO2_SO2-m1-doublet.dump_SOOrb.VTZP.SOOrb.1 INPORB

--- Start Module: rasscf at Fri Dec 14 17:15:03 2018 ---
 
()()()()()()()()()()()()()()()()()()()()()()()()()()()()()()()()()()()()()()()()()()()()()()()()()()

                                              &RASSCF

                                   only a single process is used
                       available to each process: 32 GB of memory, 8 threads
()()()()()()()()()()()()()()()()()()()()()()()()()()()()()()()()()()()()()()()()()()()()()()()()()()
 
 
      Header of the ONEINT file:
      --------------------------
      
      Integrals generated by seward 4.2.0  , Fri Dec 14 17:09:38 2018
 
 
      OrdInt status: non-squared
 
 
      Cartesian coordinates in Angstrom:
      -----------------------------------------------------
      No.  Label        X            Y            Z        
      -----------------------------------------------------
       1   C1         1.51376000   3.06967000  -1.99256000
       2   S2         1.36847000   2.77682000  -0.20718000
       3   O3        -0.13429000   2.50795000  -0.06242000
       4   NP4        0.00000000   0.00000000   0.00000000
       5   O5         0.12521000  -2.54487000  -0.00528000
       6   S6        -1.38124000  -2.80501000  -0.04281000
       7   O7        -2.09340000  -1.45219000  -0.00773000
       8   O8         2.07091000   1.42151000  -0.06114000
       9   O9         0.00000000   0.00000000   1.77210000
      10   O10       -0.00341000  -0.00643000  -1.77895000
      11   H11        2.57073000   3.18404000  -2.23517000
      12   H12        1.08384000   2.19783000  -2.48716000
      13   H13        0.96145000   3.97789000  -2.23588000
      -----------------------------------------------------
      Nuclear repulsion energy = 2276.74376528
 
++    Wave function specifications:
      -----------------------------
 
      Number of closed shell electrons         180
      Number of electrons in active shells       4
      Max number of holes in RAS1 space          0
      Max nr of electrons in RAS3 space          0
      Number of inactive orbitals               90
      Number of active orbitals                  5
      Number of secondary orbitals             334
      Spin quantum number                      1.0
      State symmetry                             1
--
 
++    Orbital specifications:
      -----------------------
 
      Symmetry species                           1
                                                 a
      Frozen orbitals                            0
      Inactive orbitals                         90
      Active orbitals                            5
      RAS1 orbitals                              0
      RAS2 orbitals                              5
      RAS3 orbitals                              0
      Secondary orbitals                       334
      Deleted orbitals                           0
      Number of basis functions                429
--
 
++    CI expansion specifications:
      ----------------------------
 
      Number of CSFs                            45
      Number of determinants                    50
      Number of root(s) required                 1
      Root chosen for geometry opt.              1
      CI root used                               1
         
      highest root included in the CI            1
      max. size of the explicit Hamiltonian     45
--
 
++    Optimization specifications:
      ----------------------------
 
      RASSCF algorithm: LK RI/DF
      Maximum number of macro iterations       200
      Maximum number of SX iterations          100
      Threshold for RASSCF energy            0.100E-07
      Threshold for max MO rotation          0.100E+00
      Threshold for max BLB element          0.100E-03
      Level shift parameter                  0.500E+00
      Make Quasi-Newton update
--
 
      The MO-coefficients are taken from the file:
      INPORB                                                                                                                          
      Title: DENSITY FOR PROPERTY TYPE HERMSING01.01                                       
 
      Total molecular charge   -2.00
 
      ************************************************************************************************************************
      *                                                                                                                      *
      *                                            Wave function control section                                             *
      *                                                                                                                      *
      ************************************************************************************************************************
 
 
                                         CASCI only, no orbital optimization will be done.
                                         -------------------------------------------------
 
      Iter CI   SX   CI       RASSCF       Energy    max ROT     max BLB   max BLB  Level Ln srch  Step   QN   Walltime
          iter iter root      energy       change     param      element    value   shift minimum  type update hh:mm:ss
 Nr of preliminary CI iterations:   1
        1   1    0    1-30023.49174276    0.00E+00   0.00E+00   91 250 1 -0.39E-01*  0.00   0.00    SX    NO    0:05:56
 
      ************************************************************************************************************************
                                                      Wave function printout:
                       occupation of active orbitals, and spin coupling of open shells (u,d: Spin up or down)
      ************************************************************************************************************************
 
      Note: transformation to natural orbitals
      has been made, which may change the order of the CSFs.
 
      printout of CI-coefficients larger than  0.05 for root  1
      energy=  -30023.491743
      conf/sym  11111     Coeff  Weight
             1  2uu00   0.77508 0.60075
            20  200uu   0.63148 0.39877
 
      Natural orbitals and occupation numbers for root  1
      sym 1:   1.999998   0.600992   0.600993   0.399009   0.399008
 
      ************************************************************************************************************************
      *                                                                                                                      *
      *                                                    Final results                                                     *
      *                                                                                                                      *
      ************************************************************************************************************************
 
 
++    Wave function specifications:
      -----------------------------
 
      Number of closed shell electrons         180
      Number of electrons in active shells       4
      Max number of holes in RAS1 space          0
      Max nr of electrons in RAS3 space          0
      Number of inactive orbitals               90
      Number of active orbitals                  5
      Number of secondary orbitals             334
      Spin quantum number                      1.0
      State symmetry                             1
--
 
++    Orbital specifications:
      -----------------------
 
      Symmetry species                           1
                                                 a
      Frozen orbitals                            0
      Inactive orbitals                         90
      Active orbitals                            5
      RAS1 orbitals                              0
      RAS2 orbitals                              5
      RAS3 orbitals                              0
      Secondary orbitals                       334
      Deleted orbitals                           0
      Number of basis functions                429
--
 
++    CI expansion specifications:
      ----------------------------
 
      Number of CSFs                            45
      Number of determinants                    50
      Number of root(s) required                 1
      CI root used                               1
      highest root included in the CI            1
      Root passed to geometry opt.               1
--
 
++    Final optimization conditions:
      ------------------------------
 
      Average CI energy                          -30023.49174288
      RASSCF energy for state  1                 -30023.49174287
      Super-CI energy                                 0.00000000
      RASSCF energy change                            0.00000000
      Max change in MO coefficients               0.000E+00
      Max non-diagonal density matrix element     0.000E+00
      Maximum BLB matrix element                 -0.385E-01
      (orbital pair  91, 250 in symmetry   1)
      Norm of electronic gradient            0.396E+00
--
 
 
      Final state energy(ies):
      ------------------------
 
::    RASSCF root number  1 Total energy: -30023.49174288
 
++    Molecular orbitals:
      -------------------
 
      Pseudonatural active orbitals and approximate occupation numbers
 
 
      MOLECULAR ORBITALS FOR SYMMETRY SPECIES 1: a  
 
      INDEX  ENERGY  OCCUPATION COEFFICIENTS ...
          1    0.0000    2.0000                                                                                                           
                31 S2     1s     ( 0.4099)  96 NP4    2s     ( 0.1303)  97 NP4    3s     (-0.5027)  98 NP4    4s     ( 0.1028)
               106 NP4    4px    ( 0.3208) 114 NP4    4py    ( 0.1202) 122 NP4    4pz    ( 0.4079) 130 NP4    5d2-   (-0.1274)
               154 NP4    5d2+   ( 0.1422) 166 NP4    4f1-   (-0.1351) 170 NP4    4f0    (-0.2636)
          2    0.0000    2.0000                                                                                                           
                 2 C1     2s     ( 0.3127)  31 S2     1s     (-0.1677)  33 S2     3s     (-0.1368)  45 S2     3pz    (-0.1185)
                66 O3     2s     (-0.1096)  69 O3     2px    (-0.1092)  96 NP4    2s     ( 0.2002)  97 NP4    3s     (-0.2146)
               106 NP4    4px    (-0.3941) 122 NP4    4pz    (-0.1487) 135 NP4    4d1-   ( 0.1323) 154 NP4    5d2+   ( 0.1268)
               166 NP4    4f1-   (-0.1425) 174 NP4    4f1+   (-0.1010) 234 S6     1s     ( 0.2994) 299 O8     2s     (-0.1382)
               302 O8     2px    ( 0.1011) 328 O9     1s     (-0.1007) 402 H12    1s     ( 0.1490)
          3    0.0000    2.0000                                                                                                           
                31 S2     1s     ( 0.3674)  97 NP4    3s     ( 0.3566) 106 NP4    4px    (-0.4757) 107 NP4    5px    ( 0.1102)
               121 NP4    3pz    (-0.1125) 122 NP4    4pz    ( 0.3986) 123 NP4    5pz    (-0.1089) 166 NP4    4f1-   ( 0.1889)
               170 NP4    4f0    (-0.1488) 174 NP4    4f1+   (-0.2858)
          4    0.0000    2.0000                                                                                                           
                 2 C1     2s     (-0.1754)  75 O3     2pz    ( 0.1174)  96 NP4    2s     ( 0.6666)  97 NP4    3s     (-0.2087)
               105 NP4    3px    ( 0.1052) 106 NP4    4px    (-0.1322) 114 NP4    4py    ( 0.2504) 147 NP4    4d1+   (-0.1062)
               166 NP4    4f1-   ( 0.1019) 170 NP4    4f0    ( 0.1325) 234 S6     1s     (-0.3332) 235 S6     2s     ( 0.1009)
               243 S6     2py    (-0.1455)
          5    0.0000    2.0000                                                                                                           
                 2 C1     2s     (-0.2417)  31 S2     1s     (-0.3289)  45 S2     3pz    ( 0.1337)  96 NP4    2s     (-0.2084)
                97 NP4    3s     (-0.3871)  98 NP4    4s     ( 0.1432) 106 NP4    4px    (-0.2821) 107 NP4    5px    ( 0.1014)
               113 NP4    3py    ( 0.1011) 114 NP4    4py    (-0.1138) 121 NP4    3pz    (-0.1300) 141 NP4    4d0    (-0.1053)
               158 NP4    4f3-   (-0.1070) 170 NP4    4f0    (-0.3272) 174 NP4    4f1+   (-0.2599) 234 S6     1s     ( 0.1438)
               308 O8     2pz    ( 0.1088) 402 H12    1s     (-0.1025)
          6    0.0000    2.0000                                                                                                           
                 2 C1     2s     (-0.2746)  31 S2     1s     ( 0.2057)  32 S2     2s     (-0.1218)  33 S2     3s     (-0.2057)
                45 S2     3pz    ( 0.1420)  97 NP4    3s     (-0.1022) 106 NP4    4px    ( 0.1384) 115 NP4    5py    (-0.1243)
               122 NP4    4pz    (-0.2815) 130 NP4    5d2-   (-0.1428) 147 NP4    4d1+   ( 0.1371) 170 NP4    4f0    ( 0.1937)
               234 S6     1s     ( 0.4212) 268 O7     1s     ( 0.1637) 359 O10    2s     ( 0.1088)
          7    0.0000    2.0000                                                                                                           
                 5 C1     2px    (-0.1022)  33 S2     3s     ( 0.2299)  66 O3     2s     ( 0.1198)  75 O3     2pz    (-0.1225)
                96 NP4    2s     ( 0.1871)  97 NP4    3s     ( 0.1546)  98 NP4    4s     (-0.2300)  99 NP4    5s     ( 0.1232)
               105 NP4    3px    ( 0.1052) 113 NP4    3py    ( 0.1101) 114 NP4    4py    ( 0.2251) 121 NP4    3pz    (-0.3240)
               122 NP4    4pz    ( 0.1443) 129 NP4    4d2-   ( 0.1358) 130 NP4    5d2-   (-0.1972) 135 NP4    4d1-   ( 0.1307)
               142 NP4    5d0    (-0.1063) 147 NP4    4d1+   ( 0.2462) 153 NP4    4d2+   ( 0.2544) 166 NP4    4f1-   (-0.1699)
               170 NP4    4f0    ( 0.2162) 182 NP4    4f3+   ( 0.1068) 243 S6     2py    ( 0.1291) 328 O9     1s     ( 0.1000)
               388 H11    1s     (-0.1014)
          8    0.0000    2.0000                                                                                                           
                 2 C1     2s     ( 0.1479)  31 S2     1s     ( 0.1540)  33 S2     3s     ( 0.2109)  45 S2     3pz    (-0.1238)
                72 O3     2py    (-0.1090)  97 NP4    3s     (-0.2738)  98 NP4    4s     ( 0.1439) 105 NP4    3px    ( 0.1629)
               106 NP4    4px    (-0.1436) 114 NP4    4py    (-0.2234) 121 NP4    3pz    (-0.2150) 122 NP4    4pz    (-0.1244)
               134 NP4    3d1-   ( 0.1187) 135 NP4    4d1-   (-0.2527) 141 NP4    4d0    (-0.1083) 147 NP4    4d1+   (-0.1412)
               166 NP4    4f1-   ( 0.3396) 170 NP4    4f0    ( 0.3335) 299 O8     2s     ( 0.1052)
          9    0.0000    2.0000                                                                                                           
                 5 C1     2px    ( 0.1362)  31 S2     1s     ( 0.1780)  32 S2     2s     (-0.1033)  65 O3     1s     ( 0.1138)
                96 NP4    2s     (-0.1410)  97 NP4    3s     (-0.1165)  98 NP4    4s     ( 0.1309) 105 NP4    3px    (-0.1256)
               106 NP4    4px    (-0.1935) 121 NP4    3pz    (-0.1621) 135 NP4    4d1-   ( 0.2323) 141 NP4    4d0    (-0.2738)
               147 NP4    4d1+   ( 0.3637) 153 NP4    4d2+   ( 0.1495) 166 NP4    4f1-   (-0.2846) 170 NP4    4f0    ( 0.1287)
               174 NP4    4f1+   ( 0.1604) 234 S6     1s     (-0.2757) 268 O7     1s     (-0.1490) 298 O8     1s     ( 0.1477)
               362 O10    2px    ( 0.1135) 388 H11    1s     ( 0.1200)
         10    0.0000    2.0000                                                                                                           
                 8 C1     2py    (-0.1292)  31 S2     1s     ( 0.1211)  40 S2     2py    ( 0.1632)  75 O3     2pz    (-0.1134)
                96 NP4    2s     ( 0.1128)  97 NP4    3s     (-0.1017) 105 NP4    3px    ( 0.1043) 106 NP4    4px    (-0.1951)
               114 NP4    4py    (-0.2878) 116 NP4    6py    ( 0.1091) 129 NP4    4d2-   ( 0.2931) 141 NP4    4d0    ( 0.1414)
               147 NP4    4d1+   (-0.2206) 158 NP4    4f3-   ( 0.1723) 166 NP4    4f1-   (-0.3552) 174 NP4    4f1+   ( 0.1022)
               211 O5     2py    (-0.1149) 268 O7     1s     (-0.1295) 272 O7     2px    (-0.1027) 358 O10    1s     (-0.2213)
               365 O10    2py    ( 0.1427) 402 H12    1s     ( 0.1311)
         11    0.0000    2.0000                                                                                                           
                 8 C1     2py    ( 0.1118)  31 S2     1s     ( 0.3310)  33 S2     3s     ( 0.1134) 105 NP4    3px    (-0.1154)
               106 NP4    4px    (-0.1198) 114 NP4    4py    (-0.3180) 121 NP4    3pz    ( 0.4288) 122 NP4    4pz    (-0.2330)
               124 NP4    6pz    ( 0.1135) 166 NP4    4f1-   (-0.1126) 170 NP4    4f0    ( 0.1935) 205 O5     2s     (-0.1238)
               208 O5     2px    ( 0.1164) 240 S6     3px    (-0.1081) 358 O10    1s     ( 0.2954) 359 O10    2s     (-0.1283)
               362 O10    2px    (-0.1041)
         12    0.0000    2.0000                                                                                                           
                33 S2     3s     ( 0.1558)  45 S2     3pz    (-0.1157)  66 O3     2s     ( 0.1151)  69 O3     2px    ( 0.1045)
                96 NP4    2s     (-0.1495)  98 NP4    4s     ( 0.1927) 114 NP4    4py    ( 0.1656) 115 NP4    5py    (-0.1271)
               121 NP4    3pz    ( 0.3010) 129 NP4    4d2-   (-0.2694) 147 NP4    4d1+   ( 0.3300) 153 NP4    4d2+   (-0.1153)
               166 NP4    4f1-   (-0.1289) 170 NP4    4f0    (-0.1232) 174 NP4    4f1+   (-0.1146) 182 NP4    4f3+   (-0.1082)
               236 S6     3s     ( 0.1108) 269 O7     2s     ( 0.1861) 359 O10    2s     ( 0.1422) 362 O10    2px    ( 0.1069)
               365 O10    2py    ( 0.1002)
         13    0.0000    2.0000                                                                                                           
                 2 C1     2s     (-0.1780)  31 S2     1s     (-0.1619)  98 NP4    4s     ( 0.2331) 105 NP4    3px    ( 0.1006)
               114 NP4    4py    (-0.2030) 122 NP4    4pz    ( 0.3526) 129 NP4    4d2-   (-0.3004) 134 NP4    3d1-   ( 0.1074)
               141 NP4    4d0    ( 0.1601) 154 NP4    5d2+   ( 0.1891) 170 NP4    4f0    ( 0.2128) 174 NP4    4f1+   ( 0.3064)
               205 O5     2s     (-0.1159) 208 O5     2px    ( 0.1059) 234 S6     1s     ( 0.2476) 243 S6     2py    ( 0.1264)
               358 O10    1s     (-0.1221) 416 H13    1s     (-0.1092)
         14    0.0000    2.0000                                                                                                           
                 8 C1     2py    ( 0.1292)  31 S2     1s     ( 0.1884)  72 O3     2py    ( 0.1005)  96 NP4    2s     ( 0.2406)
                98 NP4    4s     ( 0.1338) 105 NP4    3px    ( 0.2160) 113 NP4    3py    (-0.1585) 114 NP4    4py    (-0.1402)
               115 NP4    5py    ( 0.1236) 121 NP4    3pz    (-0.3347) 122 NP4    4pz    (-0.1492) 130 NP4    5d2-   ( 0.2954)
               147 NP4    4d1+   ( 0.2722) 153 NP4    4d2+   (-0.2599) 166 NP4    4f1-   (-0.1611) 170 NP4    4f0    (-0.1818)
               247 S6     2pz    ( 0.1022) 328 O9     1s     (-0.1395) 416 H13    1s     ( 0.1347)
         15    0.0000    2.0000                                                                                                           
                 5 C1     2px    ( 0.1115)  75 O3     2pz    ( 0.1541)  95 NP4    1s     ( 0.1098)  96 NP4    2s     (-0.1353)
                98 NP4    4s     ( 0.1412) 100 NP4    6s     (-0.1703) 105 NP4    3px    ( 0.1976) 116 NP4    6py    ( 0.1103)
               122 NP4    4pz    ( 0.1040) 129 NP4    4d2-   ( 0.1297) 141 NP4    4d0    (-0.1787) 147 NP4    4d1+   (-0.1108)
               153 NP4    4d2+   (-0.1062) 154 NP4    5d2+   (-0.1277) 166 NP4    4f1-   (-0.1072) 170 NP4    4f0    ( 0.1552)
               174 NP4    4f1+   (-0.2992) 178 NP4    4f2+   ( 0.1331) 205 O5     2s     (-0.1773) 208 O5     2px    ( 0.1664)
               234 S6     1s     (-0.1067) 240 S6     3px    (-0.1832) 268 O7     1s     ( 0.1359) 269 O7     2s     ( 0.2054)
               275 O7     2py    (-0.1174) 329 O9     2s     (-0.1823) 358 O10    1s     (-0.1402) 388 H11    1s     ( 0.1254)
      
         16    0.0000    2.0000                                                                                                           
                 2 C1     2s     (-0.1056)  65 O3     1s     (-0.1185)  96 NP4    2s     (-0.1976)  97 NP4    3s     (-0.1768)
               100 NP4    6s     (-0.1165) 105 NP4    3px    (-0.1819) 114 NP4    4py    ( 0.2080) 129 NP4    4d2-   ( 0.2301)
               141 NP4    4d0    ( 0.3003) 147 NP4    4d1+   ( 0.2053) 153 NP4    4d2+   (-0.4459) 166 NP4    4f1-   ( 0.1316)
               170 NP4    4f0    ( 0.2612) 174 NP4    4f1+   (-0.1506) 204 O5     1s     ( 0.1997) 234 S6     1s     (-0.1587)
               272 O7     2px    (-0.1224) 298 O8     1s     ( 0.1805) 328 O9     1s     (-0.1109)
         17    0.0000    2.0000                                                                                                           
                31 S2     1s     ( 0.1172)  37 S2     3px    (-0.1022)  65 O3     1s     ( 0.1020)  97 NP4    3s     (-0.2180)
                98 NP4    4s     (-0.2006)  99 NP4    5s     ( 0.1174) 105 NP4    3px    (-0.1449) 106 NP4    4px    (-0.1516)
               107 NP4    5px    ( 0.1351) 129 NP4    4d2-   (-0.2162) 130 NP4    5d2-   ( 0.1843) 153 NP4    4d2+   ( 0.1553)
               166 NP4    4f1-   ( 0.3099) 170 NP4    4f0    (-0.1268) 174 NP4    4f1+   ( 0.2141) 182 NP4    4f3+   ( 0.2359)
               204 O5     1s     (-0.1272) 234 S6     1s     (-0.1061) 240 S6     3px    (-0.1073) 269 O7     2s     ( 0.1760)
               278 O7     2pz    ( 0.1452) 298 O8     1s     ( 0.2133) 299 O8     2s     (-0.1162) 332 O9     2px    (-0.1149)
               358 O10    1s     (-0.1306) 365 O10    2py    (-0.1165)
         18    0.0000    2.0000                                                                                                           
                 5 C1     2px    (-0.1403)  31 S2     1s     (-0.1833)  33 S2     3s     (-0.1650)  65 O3     1s     (-0.1595)
                98 NP4    4s     ( 0.1006) 106 NP4    4px    ( 0.1966) 114 NP4    4py    (-0.3449) 122 NP4    4pz    ( 0.1666)
               129 NP4    4d2-   ( 0.1063) 130 NP4    5d2-   (-0.1132) 141 NP4    4d0    (-0.1480) 147 NP4    4d1+   ( 0.1933)
               148 NP4    5d1+   ( 0.1053) 154 NP4    5d2+   ( 0.1045) 166 NP4    4f1-   ( 0.1222) 170 NP4    4f0    ( 0.1013)
               174 NP4    4f1+   (-0.1495) 178 NP4    4f2+   (-0.1541) 234 S6     1s     (-0.2826) 269 O7     2s     ( 0.2053)
               328 O9     1s     ( 0.1246) 388 H11    1s     (-0.1112) 402 H12    1s     ( 0.1252)
         19    0.0000    2.0000                                                                                                           
                 1 C1     1s     (-0.1296)   5 C1     2px    ( 0.1544)  37 S2     3px    ( 0.1218)  65 O3     1s     (-0.2288)
                75 O3     2pz    ( 0.1001)  96 NP4    2s     ( 0.1152)  97 NP4    3s     (-0.1034) 106 NP4    4px    (-0.1133)
               121 NP4    3pz    ( 0.1374) 129 NP4    4d2-   ( 0.2895) 141 NP4    4d0    ( 0.2729) 147 NP4    4d1+   ( 0.2033)
               153 NP4    4d2+   ( 0.4216) 154 NP4    5d2+   (-0.1616) 182 NP4    4f3+   (-0.1092) 204 O5     1s     ( 0.1561)
               243 S6     2py    ( 0.1557) 269 O7     2s     ( 0.1061) 305 O8     2py    ( 0.1186) 329 O9     2s     (-0.1028)
               388 H11    1s     ( 0.1356)
         20    0.0000    2.0000                                                                                                           
                65 O3     1s     ( 0.2619)  98 NP4    4s     (-0.1714)  99 NP4    5s     ( 0.1027) 105 NP4    3px    ( 0.2229)
               106 NP4    4px    ( 0.1276) 113 NP4    3py    (-0.1506) 120 NP4    2pz    ( 0.1076) 129 NP4    4d2-   ( 0.2031)
               130 NP4    5d2-   ( 0.1342) 135 NP4    4d1-   ( 0.3143) 142 NP4    5d0    ( 0.1327) 147 NP4    4d1+   ( 0.1827)
               148 NP4    5d1+   ( 0.1619) 158 NP4    4f3-   ( 0.1531) 166 NP4    4f1-   ( 0.3281) 174 NP4    4f1+   (-0.1600)
               182 NP4    4f3+   (-0.1573) 204 O5     1s     (-0.1662) 214 O5     2pz    (-0.1606) 234 S6     1s     ( 0.1012)
               247 S6     2pz    ( 0.1266) 248 S6     3pz    (-0.1038) 268 O7     1s     (-0.1354) 278 O7     2pz    (-0.1110)
               298 O8     1s     ( 0.1520) 358 O10    1s     ( 0.1042)
         21    0.0000    2.0000                                                                                                           
                 8 C1     2py    (-0.1306)  40 S2     2py    ( 0.1106)  66 O3     2s     ( 0.1084)  96 NP4    2s     ( 0.1127)
                97 NP4    3s     ( 0.1444)  98 NP4    4s     ( 0.1801) 105 NP4    3px    (-0.3865) 113 NP4    3py    ( 0.1826)
               124 NP4    6pz    (-0.1708) 129 NP4    4d2-   ( 0.2500) 130 NP4    5d2-   (-0.1005) 135 NP4    4d1-   (-0.1297)
               140 NP4    3d0    ( 0.1420) 141 NP4    4d0    (-0.1525) 154 NP4    5d2+   ( 0.1259) 166 NP4    4f1-   ( 0.1056)
               204 O5     1s     (-0.1227) 234 S6     1s     ( 0.1389) 239 S6     2px    (-0.1873) 243 S6     2py    (-0.1545)
               298 O8     1s     ( 0.1397) 328 O9     1s     (-0.2531) 365 O10    2py    (-0.1659) 402 H12    1s     ( 0.1081)
      
         22    0.0000    2.0000                                                                                                           
                 5 C1     2px    (-0.1902)  31 S2     1s     ( 0.1452)  65 O3     1s     ( 0.1034)  72 O3     2py    ( 0.1836)
                96 NP4    2s     (-0.1168)  98 NP4    4s     ( 0.2437) 114 NP4    4py    ( 0.2787) 135 NP4    4d1-   (-0.1587)
               136 NP4    5d1-   ( 0.1147) 153 NP4    4d2+   ( 0.3615) 154 NP4    5d2+   (-0.2526) 158 NP4    4f3-   ( 0.1123)
               174 NP4    4f1+   (-0.1279) 211 O5     2py    (-0.1023) 214 O5     2pz    (-0.1110) 302 O8     2px    ( 0.1815)
               335 O9     2py    ( 0.1535) 358 O10    1s     (-0.1161) 388 H11    1s     (-0.1693)
         23    0.0000    2.0000                                                                                                           
                32 S2     2s     ( 0.1092)  65 O3     1s     ( 0.1360)  96 NP4    2s     ( 0.1602)  99 NP4    5s     (-0.1156)
               114 NP4    4py    (-0.2064) 121 NP4    3pz    ( 0.2091) 122 NP4    4pz    ( 0.1136) 136 NP4    5d1-   (-0.1387)
               147 NP4    4d1+   ( 0.3728) 153 NP4    4d2+   ( 0.1339) 154 NP4    5d2+   (-0.1455) 166 NP4    4f1-   ( 0.1300)
               174 NP4    4f1+   (-0.1303) 178 NP4    4f2+   ( 0.1109) 182 NP4    4f3+   ( 0.1392) 204 O5     1s     (-0.1358)
               236 S6     3s     (-0.1347) 244 S6     3py    (-0.1012) 268 O7     1s     ( 0.2034) 269 O7     2s     (-0.2313)
               275 O7     2py    ( 0.1155) 329 O9     2s     (-0.1217) 335 O9     2py    (-0.2437) 365 O10    2py    ( 0.1082)
      
         24    0.0000    2.0000                                                                                                           
                31 S2     1s     ( 0.1487)  72 O3     2py    ( 0.1244)  95 NP4    1s     (-0.1183)  98 NP4    4s     ( 0.2331)
                99 NP4    5s     (-0.1461) 105 NP4    3px    ( 0.2633) 106 NP4    4px    (-0.1351) 113 NP4    3py    ( 0.1279)
               121 NP4    3pz    ( 0.1480) 122 NP4    4pz    (-0.1322) 129 NP4    4d2-   ( 0.2221) 141 NP4    4d0    (-0.1410)
               148 NP4    5d1+   (-0.1560) 153 NP4    4d2+   (-0.1509) 158 NP4    4f3-   (-0.1372) 162 NP4    4f2-   ( 0.1276)
               170 NP4    4f0    (-0.1026) 174 NP4    4f1+   ( 0.1817) 182 NP4    4f3+   ( 0.2458) 204 O5     1s     (-0.1497)
               214 O5     2pz    (-0.1213) 243 S6     2py    ( 0.1883) 247 S6     2pz    ( 0.1384) 248 S6     3pz    (-0.1054)
               268 O7     1s     ( 0.2076) 278 O7     2pz    (-0.1626) 308 O8     2pz    (-0.1629) 328 O9     1s     ( 0.2213)
               358 O10    1s     (-0.1103) 365 O10    2py    (-0.1400)
         25    0.0000    2.0000                                                                                                           
                11 C1     2pz    (-0.1085)  45 S2     3pz    ( 0.1183)  98 NP4    4s     ( 0.1128) 105 NP4    3px    (-0.2121)
               122 NP4    4pz    ( 0.1562) 129 NP4    4d2-   ( 0.1963) 135 NP4    4d1-   ( 0.2490) 153 NP4    4d2+   (-0.1315)
               154 NP4    5d2+   (-0.1817) 158 NP4    4f3-   (-0.4044) 162 NP4    4f2-   ( 0.2022) 170 NP4    4f0    ( 0.1388)
               174 NP4    4f1+   ( 0.3195) 204 O5     1s     (-0.1445) 234 S6     1s     ( 0.1599) 236 S6     3s     ( 0.1262)
               269 O7     2s     ( 0.1396) 298 O8     1s     (-0.1079) 308 O8     2pz    ( 0.1108) 365 O10    2py    ( 0.1444)
               416 H13    1s     ( 0.1263)
         26    0.0000    2.0000                                                                                                           
                 8 C1     2py    ( 0.1513)  44 S2     2pz    (-0.1272)  96 NP4    2s     ( 0.1407)  98 NP4    4s     (-0.2595)
               100 NP4    6s     (-0.1261) 105 NP4    3px    (-0.1747) 115 NP4    5py    ( 0.1365) 121 NP4    3pz    ( 0.2918)
               122 NP4    4pz    ( 0.1359) 141 NP4    4d0    (-0.3487) 166 NP4    4f1-   (-0.1100) 208 O5     2px    (-0.1043)
               214 O5     2pz    (-0.1028) 234 S6     1s     ( 0.1832) 236 S6     3s     ( 0.1208) 278 O7     2pz    (-0.1490)
               298 O8     1s     ( 0.2010) 338 O9     2pz    ( 0.1507) 358 O10    1s     (-0.2138) 402 H12    1s     (-0.1322)
               416 H13    1s     ( 0.1065)
         27    0.0000    2.0000                                                                                                           
                66 O3     2s     ( 0.1017)  96 NP4    2s     (-0.1304) 105 NP4    3px    ( 0.1131) 113 NP4    3py    ( 0.1640)
               115 NP4    5py    ( 0.1290) 116 NP4    6py    (-0.2468) 135 NP4    4d1-   ( 0.2556) 141 NP4    4d0    ( 0.1703)
               142 NP4    5d0    ( 0.1511) 147 NP4    4d1+   (-0.1320) 148 NP4    5d1+   ( 0.1304) 166 NP4    4f1-   (-0.1171)
               170 NP4    4f0    ( 0.2715) 174 NP4    4f1+   (-0.1315) 205 O5     2s     ( 0.1067) 211 O5     2py    ( 0.1482)
               214 O5     2pz    (-0.1214) 275 O7     2py    ( 0.1787) 298 O8     1s     (-0.1062) 332 O9     2px    (-0.1438)
               335 O9     2py    (-0.1635) 358 O10    1s     (-0.2359) 359 O10    2s     ( 0.1726) 365 O10    2py    (-0.1631)
      
         28    0.0000    2.0000                                                                                                           
                11 C1     2pz    (-0.1346)  33 S2     3s     (-0.1049)  40 S2     2py    ( 0.1066)  45 S2     3pz    ( 0.1325)
                65 O3     1s     (-0.1683)  72 O3     2py    (-0.1214) 100 NP4    6s     ( 0.1049) 105 NP4    3px    ( 0.1325)
               106 NP4    4px    (-0.1242) 113 NP4    3py    (-0.2139) 114 NP4    4py    ( 0.2345) 135 NP4    4d1-   (-0.1418)
               140 NP4    3d0    ( 0.1058) 141 NP4    4d0    (-0.2815) 147 NP4    4d1+   ( 0.1835) 153 NP4    4d2+   (-0.1795)
               158 NP4    4f3-   ( 0.1853) 166 NP4    4f1-   ( 0.1342) 170 NP4    4f0    ( 0.1229) 174 NP4    4f1+   ( 0.1838)
               178 NP4    4f2+   (-0.2297) 205 O5     2s     (-0.1232) 236 S6     3s     (-0.1865) 239 S6     2px    (-0.1446)
               298 O8     1s     (-0.2690) 358 O10    1s     (-0.1694) 359 O10    2s     ( 0.1090)
         29    0.0000    2.0000                                                                                                           
                36 S2     2px    ( 0.1330)  65 O3     1s     ( 0.1294)  66 O3     2s     (-0.1211)  72 O3     2py    (-0.1132)
                95 NP4    1s     (-0.2226)  99 NP4    5s     (-0.1273) 108 NP4    6px    (-0.1090) 112 NP4    2py    (-0.1499)
               113 NP4    3py    (-0.1922) 114 NP4    4py    ( 0.1421) 130 NP4    5d2-   ( 0.1555) 136 NP4    5d1-   (-0.1602)
               140 NP4    3d0    ( 0.3499) 147 NP4    4d1+   (-0.1245) 148 NP4    5d1+   ( 0.1005) 153 NP4    4d2+   ( 0.1443)
               154 NP4    5d2+   ( 0.1258) 162 NP4    4f2-   (-0.3264) 166 NP4    4f1-   (-0.1307) 182 NP4    4f3+   (-0.1312)
               204 O5     1s     (-0.1493) 247 S6     2pz    ( 0.1752) 268 O7     1s     ( 0.1020) 278 O7     2pz    ( 0.1211)
               302 O8     2px    (-0.1140) 335 O9     2py    (-0.1558) 388 H11    1s     (-0.1038)
         30    0.0000    2.0000                                                                                                           
                11 C1     2pz    (-0.1468)  40 S2     2py    (-0.1423)  41 S2     3py    (-0.1361)  45 S2     3pz    ( 0.1548)
                96 NP4    2s     (-0.1282) 100 NP4    6s     (-0.1011) 105 NP4    3px    ( 0.1478) 107 NP4    5px    (-0.1107)
               113 NP4    3py    ( 0.1854) 114 NP4    4py    ( 0.1353) 115 NP4    5py    (-0.1214) 130 NP4    5d2-   (-0.1049)
               136 NP4    5d1-   (-0.2076) 147 NP4    4d1+   (-0.1226) 153 NP4    4d2+   (-0.1365) 158 NP4    4f3-   ( 0.2813)
               174 NP4    4f1+   ( 0.2187) 182 NP4    4f3+   ( 0.1581) 243 S6     2py    ( 0.1697) 278 O7     2pz    ( 0.1087)
               298 O8     1s     ( 0.1128) 305 O8     2py    ( 0.1602) 308 O8     2pz    ( 0.1127) 329 O9     2s     (-0.1434)
               358 O10    1s     ( 0.2538) 359 O10    2s     (-0.1081) 362 O10    2px    ( 0.1603) 416 H13    1s     ( 0.1061)
      
         31    0.0000    2.0000                                                                                                           
                 1 C1     1s     (-0.1011)  40 S2     2py    ( 0.2601)  65 O3     1s     (-0.1105)  72 O3     2py    (-0.1022)
                75 O3     2pz    (-0.1748)  97 NP4    3s     (-0.1083)  98 NP4    4s     (-0.1420) 104 NP4    2px    (-0.1038)
               122 NP4    4pz    ( 0.1476) 124 NP4    6pz    (-0.1012) 129 NP4    4d2-   (-0.1365) 134 NP4    3d1-   ( 0.1067)
               136 NP4    5d1-   (-0.2328) 154 NP4    5d2+   (-0.1665) 158 NP4    4f3-   (-0.1402) 162 NP4    4f2-   ( 0.1129)
               178 NP4    4f2+   ( 0.1489) 182 NP4    4f3+   (-0.1391) 204 O5     1s     (-0.2060) 211 O5     2py    ( 0.1513)
               214 O5     2pz    (-0.2271) 239 S6     2px    (-0.1036) 308 O8     2pz    (-0.1486) 328 O9     1s     ( 0.1653)
               329 O9     2s     (-0.1282) 358 O10    1s     ( 0.2718) 362 O10    2px    (-0.1566)
         32    0.0000    2.0000                                                                                                           
                32 S2     2s     (-0.1156)  36 S2     2px    (-0.1186)  40 S2     2py    (-0.1211)  65 O3     1s     (-0.2583)
               100 NP4    6s     (-0.1143) 105 NP4    3px    ( 0.1053) 113 NP4    3py    (-0.2274) 114 NP4    4py    ( 0.1534)
               115 NP4    5py    ( 0.3483) 130 NP4    5d2-   (-0.2132) 134 NP4    3d1-   ( 0.1018) 140 NP4    3d0    (-0.2204)
               158 NP4    4f3-   (-0.1747) 162 NP4    4f2-   (-0.1474) 170 NP4    4f0    (-0.1290) 178 NP4    4f2+   ( 0.1249)
               182 NP4    4f3+   ( 0.1885) 204 O5     1s     (-0.1138) 268 O7     1s     (-0.2946) 332 O9     2px    (-0.2164)
               335 O9     2py    (-0.1290) 365 O10    2py    ( 0.1089)
         33    0.0000    2.0000                                                                                                           
                 2 C1     2s     (-0.1271)   8 C1     2py    (-0.1179)  31 S2     1s     ( 0.1288)  65 O3     1s     (-0.1021)
                72 O3     2py    ( 0.1566) 105 NP4    3px    (-0.1357) 106 NP4    4px    (-0.1024) 113 NP4    3py    ( 0.1461)
               115 NP4    5py    (-0.1667) 135 NP4    4d1-   ( 0.1618) 141 NP4    4d0    (-0.3541) 148 NP4    5d1+   ( 0.1525)
               153 NP4    4d2+   (-0.1271) 166 NP4    4f1-   ( 0.1276) 182 NP4    4f3+   (-0.3081) 214 O5     2pz    ( 0.1733)
               236 S6     3s     ( 0.1258) 239 S6     2px    ( 0.1279) 243 S6     2py    ( 0.1092) 248 S6     3pz    ( 0.1167)
               278 O7     2pz    ( 0.1369) 298 O8     1s     (-0.1767) 302 O8     2px    ( 0.1532) 305 O8     2py    ( 0.1229)
               328 O9     1s     ( 0.1808) 329 O9     2s     (-0.1136) 332 O9     2px    (-0.1247) 358 O10    1s     (-0.1042)
               416 H13    1s     (-0.1222)
         34    0.0000    2.0000                                                                                                           
                32 S2     2s     (-0.1992)  33 S2     3s     ( 0.1202)  40 S2     2py    ( 0.1694)  41 S2     3py    ( 0.1257)
                72 O3     2py    ( 0.1536)  96 NP4    2s     (-0.1378) 105 NP4    3px    ( 0.1499) 121 NP4    3pz    ( 0.1045)
               122 NP4    4pz    ( 0.1260) 123 NP4    5pz    (-0.1238) 129 NP4    4d2-   ( 0.1648) 130 NP4    5d2-   ( 0.1837)
               135 NP4    4d1-   (-0.2036) 140 NP4    3d0    (-0.1709) 148 NP4    5d1+   ( 0.1458) 158 NP4    4f3-   ( 0.1021)
               170 NP4    4f0    ( 0.1395) 211 O5     2py    (-0.1295) 234 S6     1s     ( 0.1240) 236 S6     3s     ( 0.1251)
               239 S6     2px    (-0.1947) 243 S6     2py    (-0.1167) 247 S6     2pz    ( 0.1525) 298 O8     1s     (-0.1097)
               328 O9     1s     (-0.1263) 329 O9     2s     ( 0.1041) 335 O9     2py    (-0.1234) 358 O10    1s     ( 0.2680)
               359 O10    2s     (-0.1454) 368 O10    2pz    ( 0.1196) 416 H13    1s     (-0.1023)
         35    0.0000    2.0000                                                                                                           
                 5 C1     2px    (-0.1141)  98 NP4    4s     (-0.1262)  99 NP4    5s     ( 0.1290) 104 NP4    2px    ( 0.1069)
               107 NP4    5px    (-0.2122) 113 NP4    3py    (-0.1780) 134 NP4    3d1-   ( 0.1566) 140 NP4    3d0    (-0.1819)
               170 NP4    4f0    (-0.1289) 174 NP4    4f1+   ( 0.1385) 178 NP4    4f2+   ( 0.1926) 182 NP4    4f3+   (-0.2551)
               204 O5     1s     ( 0.1216) 214 O5     2pz    (-0.1530) 234 S6     1s     (-0.2239) 235 S6     2s     ( 0.1158)
               236 S6     3s     (-0.1006) 248 S6     3pz    (-0.1152) 268 O7     1s     ( 0.4262) 278 O7     2pz    (-0.1484)
               328 O9     1s     (-0.1491) 329 O9     2s     ( 0.1497) 335 O9     2py    (-0.1400) 358 O10    1s     (-0.1025)
      
         36    0.0000    2.0000                                                                                                           
                 1 C1     1s     ( 0.1137)  65 O3     1s     ( 0.1311)  98 NP4    4s     (-0.2199)  99 NP4    5s     ( 0.1210)
               105 NP4    3px    ( 0.3264) 113 NP4    3py    ( 0.2076) 114 NP4    4py    (-0.1165) 121 NP4    3pz    ( 0.1335)
               130 NP4    5d2-   (-0.1652) 135 NP4    4d1-   (-0.1359) 136 NP4    5d1-   ( 0.1096) 140 NP4    3d0    ( 0.2357)
               147 NP4    4d1+   ( 0.1466) 148 NP4    5d1+   (-0.1722) 158 NP4    4f3-   (-0.3704) 170 NP4    4f0    (-0.1111)
               174 NP4    4f1+   ( 0.1126) 178 NP4    4f2+   ( 0.1709) 182 NP4    4f3+   (-0.2788) 205 O5     2s     (-0.1050)
               239 S6     2px    (-0.1211) 243 S6     2py    (-0.1055) 268 O7     1s     (-0.1704) 365 O10    2py    (-0.1143)
      
         37    0.0000    2.0000                                                                                                           
                33 S2     3s     ( 0.1039)  65 O3     1s     ( 0.1107)  72 O3     2py    ( 0.1974)  75 O3     2pz    ( 0.1124)
                98 NP4    4s     (-0.1681) 100 NP4    6s     (-0.1077) 107 NP4    5px    ( 0.1520) 113 NP4    3py    (-0.2664)
               114 NP4    4py    (-0.1114) 115 NP4    5py    (-0.1745) 129 NP4    4d2-   ( 0.1023) 148 NP4    5d1+   (-0.2795)
               154 NP4    5d2+   ( 0.1307) 158 NP4    4f3-   ( 0.1985) 178 NP4    4f2+   ( 0.1937) 182 NP4    4f3+   ( 0.2381)
               211 O5     2py    ( 0.1463) 243 S6     2py    (-0.1696) 272 O7     2px    ( 0.2064) 298 O8     1s     (-0.2441)
               299 O8     2s     ( 0.1813) 305 O8     2py    ( 0.1061) 308 O8     2pz    (-0.1213) 328 O9     1s     (-0.1181)
      
         38    0.0000    2.0000                                                                                                           
                 1 C1     1s     (-0.1012)   2 C1     2s     ( 0.1142)  11 C1     2pz    (-0.1476)  32 S2     2s     (-0.1311)
                37 S2     3px    (-0.1242)  40 S2     2py    ( 0.2139)  45 S2     3pz    ( 0.1573)  66 O3     2s     ( 0.1852)
                69 O3     2px    ( 0.1315)  95 NP4    1s     (-0.1813)  98 NP4    4s     (-0.1260) 105 NP4    3px    (-0.1423)
               112 NP4    2py    (-0.1188) 130 NP4    5d2-   ( 0.2425) 134 NP4    3d1-   ( 0.1574) 154 NP4    5d2+   ( 0.1210)
               158 NP4    4f3-   (-0.1805) 162 NP4    4f2-   (-0.2968) 178 NP4    4f2+   ( 0.1066) 239 S6     2px    ( 0.1709)
               243 S6     2py    ( 0.1846) 328 O9     1s     ( 0.1779) 335 O9     2py    ( 0.2055) 368 O10    2pz    (-0.1131)
      
         39    0.0000    2.0000                                                                                                           
                65 O3     1s     ( 0.2558)  66 O3     2s     (-0.1357) 105 NP4    3px    (-0.1131) 130 NP4    5d2-   ( 0.2662)
               134 NP4    3d1-   ( 0.1184) 135 NP4    4d1-   (-0.1574) 141 NP4    4d0    (-0.1427) 147 NP4    4d1+   (-0.1031)
               158 NP4    4f3-   (-0.1554) 162 NP4    4f2-   ( 0.2323) 182 NP4    4f3+   ( 0.1261) 204 O5     1s     ( 0.3431)
               205 O5     2s     (-0.1233) 208 O5     2px    ( 0.1069) 211 O5     2py    ( 0.1118) 236 S6     3s     (-0.1015)
               243 S6     2py    ( 0.1273) 268 O7     1s     (-0.2431) 278 O7     2pz    ( 0.1138) 335 O9     2py    (-0.1806)
               338 O9     2pz    (-0.1278) 362 O10    2px    ( 0.1678)
         40    0.0000    2.0000                                                                                                           
                36 S2     2px    ( 0.1255)  44 S2     2pz    (-0.1359)  65 O3     1s     (-0.1567)  72 O3     2py    ( 0.1352)
                95 NP4    1s     (-0.1122) 100 NP4    6s     ( 0.1043) 107 NP4    5px    ( 0.1740) 113 NP4    3py    (-0.1391)
               114 NP4    4py    (-0.1019) 115 NP4    5py    (-0.2092) 124 NP4    6pz    (-0.1091) 134 NP4    3d1-   (-0.1336)
               140 NP4    3d0    (-0.1848) 158 NP4    4f3-   (-0.2130) 204 O5     1s     (-0.1212) 208 O5     2px    ( 0.1021)
               211 O5     2py    (-0.1904) 239 S6     2px    ( 0.1269) 243 S6     2py    (-0.1153) 269 O7     2s     ( 0.1007)
               272 O7     2px    (-0.2272) 298 O8     1s     ( 0.1521) 299 O8     2s     ( 0.1231) 305 O8     2py    ( 0.1514)
               332 O9     2px    ( 0.1706) 359 O10    2s     ( 0.1709) 365 O10    2py    (-0.2157)
         41    0.0000    2.0000                                                                                                           
                 1 C1     1s     (-0.1153)  32 S2     2s     (-0.1276)  37 S2     3px    ( 0.1191)  66 O3     2s     (-0.1179)
                69 O3     2px    (-0.1206) 104 NP4    2px    (-0.1542) 116 NP4    6py    ( 0.1132) 129 NP4    4d2-   ( 0.1278)
               134 NP4    3d1-   (-0.1076) 135 NP4    4d1-   (-0.2042) 148 NP4    5d1+   (-0.1168) 149 NP4    6d1+   (-0.1276)
               154 NP4    5d2+   ( 0.1076) 182 NP4    4f3+   (-0.2509) 204 O5     1s     (-0.2210) 247 S6     2pz    ( 0.2141)
               332 O9     2px    (-0.3681) 335 O9     2py    ( 0.2403) 358 O10    1s     (-0.1725) 362 O10    2px    ( 0.2392)
      
         42    0.0000    2.0000                                                                                                           
                65 O3     1s     (-0.1341)  95 NP4    1s     (-0.1609)  97 NP4    3s     ( 0.1342)  98 NP4    4s     ( 0.1019)
               113 NP4    3py    ( 0.1403) 115 NP4    5py    (-0.3883) 124 NP4    6pz    ( 0.1248) 134 NP4    3d1-   (-0.1049)
               140 NP4    3d0    (-0.1773) 142 NP4    5d0    ( 0.1019) 154 NP4    5d2+   ( 0.1447) 162 NP4    4f2-   ( 0.1207)
               182 NP4    4f3+   (-0.1736) 214 O5     2pz    (-0.2201) 236 S6     3s     (-0.1201) 244 S6     3py    ( 0.1173)
               268 O7     1s     (-0.1510) 278 O7     2pz    ( 0.1407) 298 O8     1s     ( 0.1941) 299 O8     2s     (-0.1147)
               302 O8     2px    (-0.1324) 328 O9     1s     (-0.1721) 329 O9     2s     ( 0.1627) 335 O9     2py    (-0.2116)
               358 O10    1s     (-0.1505) 359 O10    2s     (-0.1648) 362 O10    2px    (-0.1095) 365 O10    2py    ( 0.1116)
      
         43    0.0000    2.0000                                                                                                           
                31 S2     1s     ( 0.1133)  32 S2     2s     (-0.1283)  37 S2     3px    ( 0.1170)  44 S2     2pz    (-0.1166)
                65 O3     1s     (-0.2126)  72 O3     2py    (-0.1508) 113 NP4    3py    ( 0.3889) 115 NP4    5py    ( 0.1031)
               123 NP4    5pz    ( 0.1223) 124 NP4    6pz    ( 0.1872) 129 NP4    4d2-   (-0.1574) 130 NP4    5d2-   ( 0.2092)
               134 NP4    3d1-   ( 0.1095) 135 NP4    4d1-   ( 0.1649) 140 NP4    3d0    ( 0.1149) 166 NP4    4f1-   ( 0.1215)
               174 NP4    4f1+   (-0.1693) 182 NP4    4f3+   ( 0.1334) 239 S6     2px    (-0.2132) 243 S6     2py    (-0.1307)
               247 S6     2pz    ( 0.1005) 268 O7     1s     ( 0.1675) 298 O8     1s     (-0.1358) 299 O8     2s     ( 0.1030)
               329 O9     2s     ( 0.1522) 359 O10    2s     (-0.1265) 368 O10    2pz    (-0.1648)
         44    0.0000    2.0000                                                                                                           
                 1 C1     1s     ( 0.1022)  32 S2     2s     (-0.1024)  40 S2     2py    (-0.1350)  72 O3     2py    (-0.1060)
                75 O3     2pz    (-0.1446) 105 NP4    3px    (-0.1153) 107 NP4    5px    ( 0.1490) 108 NP4    6px    (-0.1006)
               122 NP4    4pz    (-0.2308) 124 NP4    6pz    (-0.2088) 135 NP4    4d1-   (-0.1180) 136 NP4    5d1-   ( 0.1954)
               148 NP4    5d1+   ( 0.2220) 154 NP4    5d2+   ( 0.3032) 162 NP4    4f2-   ( 0.1168) 178 NP4    4f2+   ( 0.1268)
               214 O5     2pz    (-0.1318) 248 S6     3pz    (-0.1261) 269 O7     2s     ( 0.1329) 278 O7     2pz    (-0.1962)
               298 O8     1s     (-0.2633) 299 O8     2s     ( 0.1440) 305 O8     2py    (-0.1033) 332 O9     2px    (-0.1168)
               335 O9     2py    (-0.1516) 338 O9     2pz    ( 0.1714) 359 O10    2s     (-0.1040)
         45    0.0000    2.0000                                                                                                           
                32 S2     2s     ( 0.2006)  36 S2     2px    ( 0.1414)  37 S2     3px    ( 0.1197)  40 S2     2py    ( 0.1133)
                65 O3     1s     ( 0.1089)  72 O3     2py    (-0.1300)  75 O3     2pz    ( 0.1099) 107 NP4    5px    (-0.1200)
               108 NP4    6px    (-0.1142) 113 NP4    3py    ( 0.2180) 115 NP4    5py    ( 0.1419) 128 NP4    3d2-   ( 0.1043)
               129 NP4    4d2-   ( 0.1926) 140 NP4    3d0    (-0.3105) 146 NP4    3d1+   (-0.1135) 147 NP4    4d1+   ( 0.1080)
               154 NP4    5d2+   ( 0.1916) 162 NP4    4f2-   (-0.2098) 174 NP4    4f1+   ( 0.1290) 178 NP4    4f2+   ( 0.1994)
               204 O5     1s     (-0.1353) 211 O5     2py    (-0.1814) 214 O5     2pz    ( 0.1168) 247 S6     2pz    (-0.1553)
               269 O7     2s     ( 0.1360) 272 O7     2px    ( 0.1379) 328 O9     1s     (-0.1738) 332 O9     2px    ( 0.1101)
               358 O10    1s     (-0.1279) 362 O10    2px    (-0.1716)
         46    0.0000    2.0000                                                                                                           
                32 S2     2s     ( 0.1273)  36 S2     2px    ( 0.2066)  40 S2     2py    ( 0.2979)  44 S2     2pz    ( 0.1152)
                65 O3     1s     (-0.1684) 104 NP4    2px    ( 0.1330) 106 NP4    4px    ( 0.1053) 113 NP4    3py    (-0.1838)
               135 NP4    4d1-   ( 0.2295) 140 NP4    3d0    (-0.1131) 146 NP4    3d1+   ( 0.1189) 148 NP4    5d1+   ( 0.1666)
               162 NP4    4f2-   ( 0.1350) 166 NP4    4f1-   ( 0.1017) 178 NP4    4f2+   ( 0.2342) 247 S6     2pz    (-0.1835)
               278 O7     2pz    ( 0.1337) 302 O8     2px    (-0.1949) 305 O8     2py    (-0.1505) 335 O9     2py    ( 0.1102)
               362 O10    2px    ( 0.1466) 365 O10    2py    (-0.3443) 368 O10    2pz    (-0.1225)
         47    0.0000    2.0000                                                                                                           
                40 S2     2py    ( 0.1084)  65 O3     1s     ( 0.1460)  95 NP4    1s     (-0.1055) 105 NP4    3px    (-0.1195)
               107 NP4    5px    ( 0.1498) 108 NP4    6px    ( 0.1269) 112 NP4    2py    (-0.1205) 115 NP4    5py    ( 0.2114)
               116 NP4    6py    (-0.1273) 120 NP4    2pz    (-0.1145) 123 NP4    5pz    ( 0.1010) 129 NP4    4d2-   (-0.1291)
               130 NP4    5d2-   (-0.1878) 136 NP4    5d1-   (-0.2244) 141 NP4    4d0    ( 0.1488) 142 NP4    5d0    (-0.1860)
               148 NP4    5d1+   ( 0.2270) 158 NP4    4f3-   ( 0.1267) 162 NP4    4f2-   ( 0.2540) 182 NP4    4f3+   (-0.2012)
               204 O5     1s     (-0.1801) 214 O5     2pz    ( 0.1254) 239 S6     2px    (-0.1041) 243 S6     2py    ( 0.1314)
               328 O9     1s     ( 0.1840) 329 O9     2s     ( 0.1202) 332 O9     2px    ( 0.1774) 358 O10    1s     (-0.2762)
               359 O10    2s     (-0.1211)
         48    0.0000    2.0000                                                                                                           
                72 O3     2py    (-0.1922)  95 NP4    1s     (-0.4523)  99 NP4    5s     ( 0.1384) 107 NP4    5px    (-0.3114)
               113 NP4    3py    (-0.1449) 123 NP4    5pz    (-0.2235) 129 NP4    4d2-   (-0.1105) 142 NP4    5d0    (-0.1071)
               148 NP4    5d1+   (-0.2142) 152 NP4    3d2+   ( 0.1120) 154 NP4    5d2+   (-0.1579) 162 NP4    4f2-   ( 0.1901)
               171 NP4    5f0    (-0.1133) 211 O5     2py    (-0.1774) 329 O9     2s     ( 0.1192) 332 O9     2px    (-0.2098)
               338 O9     2pz    ( 0.1569) 362 O10    2px    (-0.1486)
         49    0.0000    2.0000                                                                                                           
                 5 C1     2px    ( 0.1008)  36 S2     2px    ( 0.1149)  41 S2     3py    (-0.1738)  65 O3     1s     ( 0.1412)
                72 O3     2py    ( 0.1355)  75 O3     2pz    (-0.1570)  95 NP4    1s     ( 0.1742)  98 NP4    4s     (-0.1356)
                99 NP4    5s     (-0.1522) 107 NP4    5px    (-0.1660) 108 NP4    6px    (-0.1165) 112 NP4    2py    ( 0.2100)
               121 NP4    3pz    (-0.1466) 134 NP4    3d1-   (-0.1663) 135 NP4    4d1-   (-0.2171) 140 NP4    3d0    (-0.1125)
               148 NP4    5d1+   ( 0.2092) 166 NP4    4f1-   (-0.1147) 204 O5     1s     ( 0.1353) 211 O5     2py    (-0.1160)
               235 S6     2s     (-0.1035) 236 S6     3s     ( 0.1140) 243 S6     2py    (-0.1697) 272 O7     2px    ( 0.1027)
               275 O7     2py    ( 0.1256) 278 O7     2pz    (-0.1637) 298 O8     1s     (-0.1022) 302 O8     2px    (-0.2093)
               308 O8     2pz    (-0.1559) 332 O9     2px    (-0.1848) 338 O9     2pz    (-0.1202) 368 O10    2pz    (-0.1331)
               388 H11    1s     ( 0.1072)
         50    0.0000    2.0000                                                                                                           
                40 S2     2py    ( 0.1260)  44 S2     2pz    ( 0.1010)  65 O3     1s     (-0.1218)  72 O3     2py    ( 0.1730)
                95 NP4    1s     (-0.1325)  99 NP4    5s     (-0.1474) 107 NP4    5px    (-0.1034) 135 NP4    4d1-   ( 0.1480)
               136 NP4    5d1-   (-0.3088) 140 NP4    3d0    ( 0.1197) 153 NP4    4d2+   ( 0.1244) 154 NP4    5d2+   ( 0.3208)
               158 NP4    4f3-   (-0.2027) 162 NP4    4f2-   ( 0.1913) 204 O5     1s     ( 0.3138) 205 O5     2s     (-0.1121)
               208 O5     2px    (-0.1227) 239 S6     2px    (-0.1165) 243 S6     2py    (-0.1459) 247 S6     2pz    ( 0.1226)
               328 O9     1s     (-0.1423) 358 O10    1s     (-0.2058) 359 O10    2s     ( 0.1252) 365 O10    2py    ( 0.1687)
      
         51    0.0000    2.0000                                                                                                           
                 1 C1     1s     ( 0.1552)  36 S2     2px    ( 0.2127)  65 O3     1s     (-0.2212)  72 O3     2py    ( 0.1437)
               104 NP4    2px    (-0.1224) 107 NP4    5px    (-0.2541) 108 NP4    6px    ( 0.1892) 112 NP4    2py    ( 0.1083)
               134 NP4    3d1-   (-0.2556) 135 NP4    4d1-   (-0.1347) 140 NP4    3d0    ( 0.2545) 148 NP4    5d1+   ( 0.1116)
               154 NP4    5d2+   (-0.1334) 162 NP4    4f2-   (-0.2603) 178 NP4    4f2+   ( 0.1702) 182 NP4    4f3+   ( 0.1910)
               214 O5     2pz    (-0.1267) 236 S6     3s     (-0.1110) 302 O8     2px    (-0.1270) 308 O8     2pz    ( 0.1317)
               328 O9     1s     ( 0.1328) 329 O9     2s     ( 0.1208) 362 O10    2px    ( 0.1034) 365 O10    2py    ( 0.1694)
               368 O10    2pz    ( 0.1148)
         52    0.0000    2.0000                                                                                                           
                72 O3     2py    (-0.1886)  95 NP4    1s     ( 0.1016)  99 NP4    5s     ( 0.1143) 104 NP4    2px    ( 0.1245)
               108 NP4    6px    (-0.1689) 112 NP4    2py    (-0.2966) 113 NP4    3py    (-0.1095) 130 NP4    5d2-   (-0.1211)
               134 NP4    3d1-   ( 0.1575) 135 NP4    4d1-   (-0.1476) 136 NP4    5d1-   ( 0.1177) 140 NP4    3d0    ( 0.1828)
               147 NP4    4d1+   ( 0.1333) 148 NP4    5d1+   ( 0.3372) 162 NP4    4f2-   ( 0.1449) 178 NP4    4f2+   ( 0.1726)
               182 NP4    4f3+   ( 0.2002) 214 O5     2pz    (-0.1572) 235 S6     2s     (-0.1773) 268 O7     1s     ( 0.1726)
               278 O7     2pz    ( 0.1484) 298 O8     1s     ( 0.1583) 299 O8     2s     (-0.1093) 305 O8     2py    ( 0.1121)
               358 O10    1s     (-0.1671) 362 O10    2px    (-0.1137)
         53    0.0000    2.0000                                                                                                           
                32 S2     2s     ( 0.1075)  99 NP4    5s     (-0.1135) 115 NP4    5py    ( 0.3011) 134 NP4    3d1-   (-0.1286)
               135 NP4    4d1-   (-0.1513) 136 NP4    5d1-   ( 0.1212) 140 NP4    3d0    ( 0.2895) 141 NP4    4d0    (-0.1015)
               152 NP4    3d2+   ( 0.1434) 162 NP4    4f2-   ( 0.2249) 178 NP4    4f2+   ( 0.1573) 204 O5     1s     (-0.2517)
               239 S6     2px    ( 0.1717) 243 S6     2py    ( 0.1769) 247 S6     2pz    (-0.2965) 278 O7     2pz    ( 0.1094)
               308 O8     2pz    (-0.1924) 328 O9     1s     (-0.2396) 338 O9     2pz    (-0.1147) 362 O10    2px    ( 0.1778)
      
         54    0.0000    2.0000                                                                                                           
                 8 C1     2py    (-0.1090)  32 S2     2s     ( 0.1175)  40 S2     2py    ( 0.1488)  65 O3     1s     ( 0.1007)
                98 NP4    4s     (-0.1394) 107 NP4    5px    (-0.1504) 112 NP4    2py    (-0.1815) 136 NP4    5d1-   ( 0.1206)
               140 NP4    3d0    (-0.1967) 148 NP4    5d1+   ( 0.1324) 158 NP4    4f3-   (-0.2449) 178 NP4    4f2+   (-0.4682)
               204 O5     1s     (-0.1039) 211 O5     2py    ( 0.1552) 214 O5     2pz    (-0.1205) 244 S6     3py    ( 0.1019)
               247 S6     2pz    (-0.1095) 269 O7     2s     (-0.1222) 275 O7     2py    (-0.1734) 298 O8     1s     (-0.2243)
               328 O9     1s     (-0.1982) 362 O10    2px    ( 0.1741) 416 H13    1s     (-0.1451)
         55    0.0000    2.0000                                                                                                           
                 8 C1     2py    ( 0.1343)  32 S2     2s     ( 0.1895)  40 S2     2py    ( 0.2213)  44 S2     2pz    ( 0.1974)
                95 NP4    1s     (-0.1577) 115 NP4    5py    (-0.1431) 120 NP4    2pz    (-0.3532) 130 NP4    5d2-   (-0.1166)
               134 NP4    3d1-   ( 0.2603) 162 NP4    4f2-   (-0.1875) 235 S6     2s     (-0.2439) 239 S6     2px    (-0.2112)
               275 O7     2py    (-0.1215) 302 O8     2px    ( 0.1423) 329 O9     2s     ( 0.1584) 335 O9     2py    (-0.2562)
               359 O10    2s     ( 0.1490) 362 O10    2px    ( 0.1302) 416 H13    1s     ( 0.1075)
         56    0.0000    2.0000                                                                                                           
                36 S2     2px    (-0.5103)  40 S2     2py    ( 0.1787)  72 O3     2py    (-0.1564)  75 O3     2pz    ( 0.1447)
                99 NP4    5s     (-0.1337) 104 NP4    2px    (-0.1793) 112 NP4    2py    ( 0.2091) 120 NP4    2pz    ( 0.2498)
               128 NP4    3d2-   ( 0.2029) 130 NP4    5d2-   (-0.1415) 146 NP4    3d1+   (-0.1012) 148 NP4    5d1+   ( 0.1350)
               154 NP4    5d2+   (-0.1152) 178 NP4    4f2+   ( 0.1258) 243 S6     2py    ( 0.2431) 247 S6     2pz    ( 0.2089)
               298 O8     1s     (-0.1087) 308 O8     2pz    ( 0.1387) 328 O9     1s     (-0.1648) 335 O9     2py    (-0.1091)
               359 O10    2s     ( 0.1713) 365 O10    2py    (-0.1222) 368 O10    2pz    (-0.1160)
         57    0.0000    2.0000                                                                                                           
                32 S2     2s     (-0.1232)  36 S2     2px    ( 0.2580)  40 S2     2py    ( 0.2417)  44 S2     2pz    ( 0.2246)
                72 O3     2py    (-0.1812)  95 NP4    1s     ( 0.2920)  98 NP4    4s     ( 0.1348) 104 NP4    2px    (-0.1339)
               107 NP4    5px    ( 0.2586) 120 NP4    2pz    (-0.1164) 123 NP4    5pz    (-0.1827) 134 NP4    3d1-   (-0.3262)
               148 NP4    5d1+   (-0.1122) 243 S6     2py    ( 0.2931) 247 S6     2pz    ( 0.1874) 272 O7     2px    (-0.1599)
               329 O9     2s     ( 0.1158)
         58    0.0000    2.0000                                                                                                           
                 8 C1     2py    ( 0.1342)  32 S2     2s     (-0.3056)  36 S2     2px    ( 0.1913)  40 S2     2py    ( 0.1503)
                44 S2     2pz    ( 0.1413) 107 NP4    5px    (-0.3866) 113 NP4    3py    ( 0.1158) 116 NP4    6py    (-0.1191)
               120 NP4    2pz    ( 0.1526) 128 NP4    3d2-   (-0.1367) 130 NP4    5d2-   (-0.2342) 135 NP4    4d1-   ( 0.1148)
               136 NP4    5d1-   ( 0.2195) 162 NP4    4f2-   ( 0.1269) 204 O5     1s     (-0.1290) 239 S6     2px    ( 0.2004)
               243 S6     2py    (-0.1484) 247 S6     2pz    ( 0.1671) 268 O7     1s     (-0.1840) 278 O7     2pz    ( 0.1040)
               328 O9     1s     (-0.1015) 332 O9     2px    ( 0.2297) 402 H12    1s     (-0.1185) 416 H13    1s     ( 0.1111)
      
         59    0.0000    2.0000                                                                                                           
                 1 C1     1s     (-0.1561)  32 S2     2s     (-0.1038)  36 S2     2px    ( 0.1267)  40 S2     2py    ( 0.1341)
                44 S2     2pz    (-0.4200)  65 O3     1s     ( 0.1932)  72 O3     2py    ( 0.1982)  75 O3     2pz    (-0.1362)
                95 NP4    1s     (-0.1190)  98 NP4    4s     ( 0.1325) 104 NP4    2px    (-0.1443) 107 NP4    5px    ( 0.1083)
               108 NP4    6px    ( 0.1225) 120 NP4    2pz    ( 0.1362) 123 NP4    5pz    (-0.1735) 130 NP4    5d2-   (-0.2027)
[...]
 
      N-E     -5.5831
 
      Total electronic charge=  184.000000
 
      Total            charge=   -2.000000
--
 
 

      Expectation values of various properties for root number:  1
      -----------------------------------------------------------
 
 
++    Molecular properties:
      ---------------------
 
      Charge (e):
                      =   -2.0000
      Dipole Moment (Debye):
      Origin of the operator (Ang)=    0.0000    0.0000    0.0000
                   X= -1.7944E+02               Y= -3.5057E+02               Z=  2.5882E+02           Total=  4.7126E+02
      Center of Charge (Ang)
                     X=   18.67883814               Y=   36.49357299               Z=  -26.94290516
      Quadrupole Moment (Debye*Ang):
      Origin of the operator (Ang)=    0.0530    0.1072   -0.1000
                  XX= -1.0610E+03              XY= -5.9596E+02              XZ=  3.6406E+02              YY= -1.9392E+03
                  YZ=  7.1097E+02              ZZ= -1.2138E+03
      In traceless form (Debye*Ang)
                  XX=  5.1551E+02              XY= -8.9395E+02              XZ=  5.4609E+02              YY= -8.0185E+02
                  YZ=  1.0664E+03              ZZ=  2.8634E+02
--
 

      Mulliken spin population analysis for root number:  1
      ---------------------------------------------------
 
 
++    Molecular charges:
      ------------------
 
      Mulliken spin population per centre and basis function type
      ---------------------------------------------------
 
                C1      S2      O3      NP4     O5      S6      O7      O8      O9      O10     H11     H12   
      1s       0.0074  0.0057  0.0021  0.0002  0.0005  0.0014  0.0091  0.0094  0.0041  0.0023  0.0022  0.0019
      2s       0.0042 -0.0007  0.0030  0.0008 -0.0015  0.0010  0.0008  0.0033  0.0003  0.0065 -0.0011 -0.0166
      2px      0.0060  0.0015  0.0021  0.0002  0.0014  0.0047 -0.0001  0.0037  0.0132 -0.0012 -0.0023  0.0090
      2pz      0.0005 -0.0000  0.0009  0.0001 -0.0005  0.0008  0.0003  0.0045 -0.0026  0.0008  0.0006  0.0216
      2py     -0.0009  0.0066 -0.0006  0.0008 -0.0049  0.0004 -0.0005  0.0055  0.0035  0.0044 -0.0010 -0.0063
      3s      -0.0063  0.0011  0.0035  0.0078  0.0068  0.0012  0.0004  0.0039  0.0006  0.0019  0.0017  0.0078
      3px     -0.0015  0.0007  0.0197  0.0007 -0.0075 -0.0008  0.0084  0.0018 -0.0025  0.0011  0.0156  0.0013
      3pz     -0.0069  0.0007  0.0025  0.0021 -0.0026  0.0016 -0.0010  0.0058  0.0111  0.0100  0.0197  0.0183
      3py     -0.0015  0.0049  0.0015  0.0015  0.0069  0.0036  0.0061  0.0107  0.0097  0.0017  0.0013 -0.0035
      4s       0.0007  0.0080  0.0014  0.0032  0.0235  0.0016  0.0014  0.0035  0.0062  0.0049  0.0000  0.0000
      3d2+     0.0092 -0.0005  0.0093  0.0007  0.0019  0.0057  0.0027  0.0028  0.0006  0.0006  0.0112 -0.0002
      3d1+    -0.0013  0.0014  0.0044  0.0000  0.0019 -0.0010 -0.0003  0.0010  0.0003  0.0044  0.0005  0.0041
      3d0     -0.0008 -0.0018  0.0050  0.0014  0.0085 -0.0003  0.0132  0.0020 -0.0002  0.0002 -0.0001  0.0023
      3d1-     0.0057 -0.0021  0.0013  0.0000  0.0009  0.0013  0.0209  0.0017 -0.0012  0.0075 -0.0001  0.0000
      3d2-     0.0115  0.0018  0.0185  0.0018  0.0007  0.0035  0.0119  0.0006  0.0055  0.0153  0.0055  0.0007
      4px     -0.0009 -0.0028  0.0031  0.0110  0.0075 -0.0025  0.0004 -0.0000  0.0050 -0.0063  0.0000  0.0000
      4pz     -0.0004  0.0009  0.0079  0.0018  0.0095  0.0048  0.0012  0.0272  0.0037  0.0152  0.0000  0.0000
      4py     -0.0018 -0.0019 -0.0013  0.0110 -0.0008  0.0001  0.0062  0.0016 -0.0066  0.0233  0.0000  0.0000
      5s       0.0000 -0.0009  0.0000  0.0016  0.0000  0.0001  0.0000  0.0000  0.0000  0.0000  0.0000  0.0000
      4d2+     0.0017  0.0011  0.0074  0.0011  0.0023  0.0173  0.0048  0.0216  0.0017  0.0009  0.0000  0.0000
      4d1+     0.0017 -0.0003  0.0023  0.0002  0.0027  0.0300  0.0220  0.0105  0.0051  0.0347  0.0000  0.0000
      4d0      0.0048  0.0005  0.0014  0.0013  0.0091  0.0269  0.0022  0.0038  0.0005  0.0001  0.0000  0.0000
      4d1-     0.0340  0.0015  0.0033  0.0027  0.0164  0.0044  0.0011  0.0007  0.0001  0.0083  0.0000  0.0000
      4d2-     0.0098  0.0058  0.0018  0.0002 -0.0003  0.0040  0.0060  0.0010  0.0060  0.0022  0.0000  0.0000
      5px      0.0000  0.0008  0.0000  0.0363  0.0000  0.0047  0.0000  0.0000  0.0000  0.0000  0.0000  0.0000
      5pz      0.0000  0.0038  0.0000  0.0012  0.0000  0.0011  0.0000  0.0000  0.0000  0.0000  0.0000  0.0000
      5py      0.0000  0.0222  0.0000  0.0132  0.0000  0.0184  0.0000  0.0000  0.0000  0.0000  0.0000  0.0000
      6s       0.0000  0.0000  0.0000 -0.0023  0.0000  0.0000  0.0000  0.0000  0.0000  0.0000  0.0000  0.0000
      4f3+     0.0113  0.0019  0.0002  0.0036  0.0041  0.0095  0.0016  0.0002  0.0181  0.0041  0.0000  0.0000
      4f2+     0.0003  0.0011  0.0020  0.0160  0.0131  0.0030  0.0020  0.0082  0.0135  0.0106  0.0000  0.0000
      4f1+     0.0003  0.0018  0.0010  0.0003  0.0040  0.0026  0.0018  0.0021  0.0164  0.0028  0.0000  0.0000
      4f0      0.0000 -0.0012  0.0057  0.0007  0.0256  0.0012  0.0316  0.0114  0.0046  0.0042  0.0000  0.0000
      4f1-     0.0054  0.0036  0.0079  0.0014  0.0094  0.0048  0.0012  0.0013 -0.0005  0.0003  0.0000  0.0000
      4f2-     0.0008  0.0010  0.0072  0.0084  0.0044 -0.0000  0.0030  0.0007  0.0049  0.0205  0.0000  0.0000
      4f3-     0.0218  0.0094  0.0066  0.0071  0.0085  0.0200  0.0091  0.0145  0.0056  0.0092  0.0000  0.0000
      5d2+     0.0000  0.0000  0.0000  0.0067  0.0000  0.0000  0.0000  0.0000  0.0000  0.0000  0.0000  0.0000
      5d1+     0.0000  0.0000  0.0000  0.0042  0.0000  0.0000  0.0000  0.0000  0.0000  0.0000  0.0000  0.0000
      5d0      0.0000  0.0000  0.0000  0.0020  0.0000  0.0000  0.0000  0.0000  0.0000  0.0000  0.0000  0.0000
      5d1-     0.0000  0.0000  0.0000  0.0004  0.0000  0.0000  0.0000  0.0000  0.0000  0.0000  0.0000  0.0000
      5d2-     0.0000  0.0000  0.0000  0.0039  0.0000  0.0000  0.0000  0.0000  0.0000  0.0000  0.0000  0.0000
      6px      0.0000  0.0000  0.0000  0.0090  0.0000  0.0000  0.0000  0.0000  0.0000  0.0000  0.0000  0.0000
      6pz      0.0000  0.0000  0.0000  0.0075  0.0000  0.0000  0.0000  0.0000  0.0000  0.0000  0.0000  0.0000
      6py      0.0000  0.0000  0.0000  0.0125  0.0000  0.0000  0.0000  0.0000  0.0000  0.0000  0.0000  0.0000
      7s       0.0000  0.0000  0.0000 -0.0048  0.0000  0.0000  0.0000  0.0000  0.0000  0.0000  0.0000  0.0000
      5f3+     0.0000  0.0000  0.0000  0.0001  0.0000  0.0000  0.0000  0.0000  0.0000  0.0000  0.0000  0.0000
      5f2+     0.0000  0.0000  0.0000  0.0001  0.0000  0.0000  0.0000  0.0000  0.0000  0.0000  0.0000  0.0000
      5f1+     0.0000  0.0000  0.0000  0.0179  0.0000  0.0000  0.0000  0.0000  0.0000  0.0000  0.0000  0.0000
      5f0      0.0000  0.0000  0.0000  0.0066  0.0000  0.0000  0.0000  0.0000  0.0000  0.0000  0.0000  0.0000
      5f1-     0.0000  0.0000  0.0000  0.0114  0.0000  0.0000  0.0000  0.0000  0.0000  0.0000  0.0000  0.0000
      5f2-     0.0000  0.0000  0.0000  0.0001  0.0000  0.0000  0.0000  0.0000  0.0000  0.0000  0.0000  0.0000
      5f3-     0.0000  0.0000  0.0000  0.0003  0.0000  0.0000  0.0000  0.0000  0.0000  0.0000  0.0000  0.0000
      6d2+     0.0000  0.0000  0.0000  0.0083  0.0000  0.0000  0.0000  0.0000  0.0000  0.0000  0.0000  0.0000
      6d1+     0.0000  0.0000  0.0000  0.0003  0.0000  0.0000  0.0000  0.0000  0.0000  0.0000  0.0000  0.0000
      6d0      0.0000  0.0000  0.0000  0.0017  0.0000  0.0000  0.0000  0.0000  0.0000  0.0000  0.0000  0.0000
      6d1-     0.0000  0.0000  0.0000  0.0084  0.0000  0.0000  0.0000  0.0000  0.0000  0.0000  0.0000  0.0000
      6d2-     0.0000  0.0000  0.0000  0.0114  0.0000  0.0000  0.0000  0.0000  0.0000  0.0000  0.0000  0.0000
      7px      0.0000  0.0000  0.0000  0.0036  0.0000  0.0000  0.0000  0.0000  0.0000  0.0000  0.0000  0.0000
      7pz      0.0000  0.0000  0.0000 -0.0005  0.0000  0.0000  0.0000  0.0000  0.0000  0.0000  0.0000  0.0000
      7py      0.0000  0.0000  0.0000  0.0011  0.0000  0.0000  0.0000  0.0000  0.0000  0.0000  0.0000  0.0000
      5g4+     0.0000  0.0000  0.0000  0.0008  0.0000  0.0000  0.0000  0.0000  0.0000  0.0000  0.0000  0.0000
      5g3+     0.0000  0.0000  0.0000  0.0027  0.0000  0.0000  0.0000  0.0000  0.0000  0.0000  0.0000  0.0000
      5g2+     0.0000  0.0000  0.0000  0.0009  0.0000  0.0000  0.0000  0.0000  0.0000  0.0000  0.0000  0.0000
      5g1+     0.0000  0.0000  0.0000  0.0026  0.0000  0.0000  0.0000  0.0000  0.0000  0.0000  0.0000  0.0000
      5g0      0.0000  0.0000  0.0000  0.0050  0.0000  0.0000  0.0000  0.0000  0.0000  0.0000  0.0000  0.0000
      5g1-     0.0000  0.0000  0.0000 -0.0001  0.0000  0.0000  0.0000  0.0000  0.0000  0.0000  0.0000  0.0000
      5g2-     0.0000  0.0000  0.0000  0.0010  0.0000  0.0000  0.0000  0.0000  0.0000  0.0000  0.0000  0.0000
      5g3-     0.0000  0.0000  0.0000  0.0198  0.0000  0.0000  0.0000  0.0000  0.0000  0.0000  0.0000  0.0000
      5g4-     0.0000  0.0000  0.0000  0.0007  0.0000  0.0000  0.0000  0.0000  0.0000  0.0000  0.0000  0.0000
      6f3+     0.0000  0.0000  0.0000  0.0026  0.0000  0.0000  0.0000  0.0000  0.0000  0.0000  0.0000  0.0000
      6f2+     0.0000  0.0000  0.0000  0.0065  0.0000  0.0000  0.0000  0.0000  0.0000  0.0000  0.0000  0.0000
      6f1+     0.0000  0.0000  0.0000  0.0183  0.0000  0.0000  0.0000  0.0000  0.0000  0.0000  0.0000  0.0000
      6f0      0.0000  0.0000  0.0000  0.0163  0.0000  0.0000  0.0000  0.0000  0.0000  0.0000  0.0000  0.0000
      6f1-     0.0000  0.0000  0.0000  0.0054  0.0000  0.0000  0.0000  0.0000  0.0000  0.0000  0.0000  0.0000
      6f2-     0.0000  0.0000  0.0000  0.0043  0.0000  0.0000  0.0000  0.0000  0.0000  0.0000  0.0000  0.0000
      6f3-     0.0000  0.0000  0.0000  0.0340  0.0000  0.0000  0.0000  0.0000  0.0000  0.0000  0.0000  0.0000
      6g4+     0.0000  0.0000  0.0000  0.0062  0.0000  0.0000  0.0000  0.0000  0.0000  0.0000  0.0000  0.0000
      6g3+     0.0000  0.0000  0.0000  0.0105  0.0000  0.0000  0.0000  0.0000  0.0000  0.0000  0.0000  0.0000
      6g2+     0.0000  0.0000  0.0000  0.0159  0.0000  0.0000  0.0000  0.0000  0.0000  0.0000  0.0000  0.0000
      6g1+     0.0000  0.0000  0.0000  0.0128  0.0000  0.0000  0.0000  0.0000  0.0000  0.0000  0.0000  0.0000
      6g0      0.0000  0.0000  0.0000  0.0030  0.0000  0.0000  0.0000  0.0000  0.0000  0.0000  0.0000  0.0000
      6g1-     0.0000  0.0000  0.0000  0.0019  0.0000  0.0000  0.0000  0.0000  0.0000  0.0000  0.0000  0.0000
      6g2-     0.0000  0.0000  0.0000  0.0009  0.0000  0.0000  0.0000  0.0000  0.0000  0.0000  0.0000  0.0000
      6g3-     0.0000  0.0000  0.0000  0.0122  0.0000  0.0000  0.0000  0.0000  0.0000  0.0000  0.0000  0.0000
      6g4-     0.0000  0.0000  0.0000  0.0036  0.0000  0.0000  0.0000  0.0000  0.0000  0.0000  0.0000  0.0000
      7d2+     0.0000  0.0000  0.0000  0.0014  0.0000  0.0000  0.0000  0.0000  0.0000  0.0000  0.0000  0.0000
      7d1+     0.0000  0.0000  0.0000  0.0029  0.0000  0.0000  0.0000  0.0000  0.0000  0.0000  0.0000  0.0000
      7d0      0.0000  0.0000  0.0000  0.0115  0.0000  0.0000  0.0000  0.0000  0.0000  0.0000  0.0000  0.0000
      7d1-     0.0000  0.0000  0.0000  0.0002  0.0000  0.0000  0.0000  0.0000  0.0000  0.0000  0.0000  0.0000
      7d2-     0.0000  0.0000  0.0000  0.0000  0.0000  0.0000  0.0000  0.0000  0.0000  0.0000  0.0000  0.0000
      7f3+     0.0000  0.0000  0.0000 -0.0015  0.0000  0.0000  0.0000  0.0000  0.0000  0.0000  0.0000  0.0000
      7f2+     0.0000  0.0000  0.0000  0.0202  0.0000  0.0000  0.0000  0.0000  0.0000  0.0000  0.0000  0.0000
      7f1+     0.0000  0.0000  0.0000  0.0020  0.0000  0.0000  0.0000  0.0000  0.0000  0.0000  0.0000  0.0000
      7f0      0.0000  0.0000  0.0000  0.0077  0.0000  0.0000  0.0000  0.0000  0.0000  0.0000  0.0000  0.0000
      7f1-     0.0000  0.0000  0.0000  0.0015  0.0000  0.0000  0.0000  0.0000  0.0000  0.0000  0.0000  0.0000
      7f2-     0.0000  0.0000  0.0000  0.0130  0.0000  0.0000  0.0000  0.0000  0.0000  0.0000  0.0000  0.0000
      7f3-     0.0000  0.0000  0.0000  0.0110  0.0000  0.0000  0.0000  0.0000  0.0000  0.0000  0.0000  0.0000
      8s       0.0000  0.0000  0.0000 -0.0011  0.0000  0.0000  0.0000  0.0000  0.0000  0.0000  0.0000  0.0000
      8px      0.0000  0.0000  0.0000  0.0094  0.0000  0.0000  0.0000  0.0000  0.0000  0.0000  0.0000  0.0000
      8pz      0.0000  0.0000  0.0000  0.0000  0.0000  0.0000  0.0000  0.0000  0.0000  0.0000  0.0000  0.0000
      8py      0.0000  0.0000  0.0000  0.0074  0.0000  0.0000  0.0000  0.0000  0.0000  0.0000  0.0000  0.0000
      8d2+     0.0000  0.0000  0.0000  0.0006  0.0000  0.0000  0.0000  0.0000  0.0000  0.0000  0.0000  0.0000
      8d1+     0.0000  0.0000  0.0000  0.0097  0.0000  0.0000  0.0000  0.0000  0.0000  0.0000  0.0000  0.0000
      8d0      0.0000  0.0000  0.0000 -0.0005  0.0000  0.0000  0.0000  0.0000  0.0000  0.0000  0.0000  0.0000
      8d1-     0.0000  0.0000  0.0000  0.0165  0.0000  0.0000  0.0000  0.0000  0.0000  0.0000  0.0000  0.0000
      8d2-     0.0000  0.0000  0.0000  0.0010  0.0000  0.0000  0.0000  0.0000  0.0000  0.0000  0.0000  0.0000
      9s       0.0000  0.0000  0.0000  0.0076  0.0000  0.0000  0.0000  0.0000  0.0000  0.0000  0.0000  0.0000
      9px      0.0000  0.0000  0.0000  0.0006  0.0000  0.0000  0.0000  0.0000  0.0000  0.0000  0.0000  0.0000
      9pz      0.0000  0.0000  0.0000 -0.0007  0.0000  0.0000  0.0000  0.0000  0.0000  0.0000  0.0000  0.0000
      9py      0.0000  0.0000  0.0000  0.0146  0.0000  0.0000  0.0000  0.0000  0.0000  0.0000  0.0000  0.0000
      Total    0.1147  0.0755  0.1310  0.5729  0.1514  0.1750  0.1676  0.1652  0.1266  0.1906  0.0537  0.0405
 
                H13   
      1s       0.0051
      2s       0.0009
      2px      0.0035
      2pz      0.0142
      2py     -0.0056
      3s       0.0073
      3px      0.0003
      3pz      0.0026
      3py      0.0001
      4s       0.0000
      3d2+    -0.0018
      3d1+     0.0009
      3d0      0.0022
      3d1-     0.0014
      3d2-     0.0041
      4px      0.0000
      4pz      0.0000
      4py      0.0000
      5s       0.0000
      4d2+     0.0000
      4d1+     0.0000
      4d0      0.0000
      4d1-     0.0000
      4d2-     0.0000
      5px      0.0000
      5pz      0.0000
      5py      0.0000
      6s       0.0000
      4f3+     0.0000
      4f2+     0.0000
      4f1+     0.0000
      4f0      0.0000
      4f1-     0.0000
      4f2-     0.0000
      4f3-     0.0000
      5d2+     0.0000
      5d1+     0.0000
      5d0      0.0000
      5d1-     0.0000
      5d2-     0.0000
      6px      0.0000
      6pz      0.0000
      6py      0.0000
      7s       0.0000
      5f3+     0.0000
      5f2+     0.0000
      5f1+     0.0000
      5f0      0.0000
      5f1-     0.0000
      5f2-     0.0000
      5f3-     0.0000
      6d2+     0.0000
      6d1+     0.0000
      6d0      0.0000
      6d1-     0.0000
      6d2-     0.0000
      7px      0.0000
      7pz      0.0000
      7py      0.0000
      5g4+     0.0000
      5g3+     0.0000
      5g2+     0.0000
      5g1+     0.0000
      5g0      0.0000
      5g1-     0.0000
      5g2-     0.0000
      5g3-     0.0000
      5g4-     0.0000
      6f3+     0.0000
      6f2+     0.0000
      6f1+     0.0000
      6f0      0.0000
      6f1-     0.0000
      6f2-     0.0000
      6f3-     0.0000
      6g4+     0.0000
      6g3+     0.0000
      6g2+     0.0000
      6g1+     0.0000
      6g0      0.0000
      6g1-     0.0000
      6g2-     0.0000
      6g3-     0.0000
      6g4-     0.0000
      7d2+     0.0000
      7d1+     0.0000
      7d0      0.0000
      7d1-     0.0000
      7d2-     0.0000
      7f3+     0.0000
      7f2+     0.0000
      7f1+     0.0000
      7f0      0.0000
      7f1-     0.0000
      7f2-     0.0000
      7f3-     0.0000
      8s       0.0000
      8px      0.0000
      8pz      0.0000
      8py      0.0000
      8d2+     0.0000
      8d1+     0.0000
      8d0      0.0000
      8d1-     0.0000
      8d2-     0.0000
      9s       0.0000
      9px      0.0000
      9pz      0.0000
      9py      0.0000
      Total    0.0353
 
      Total electronic spin=    2.000000
--
 
 

      LoProp population analysis for root number:  1
      -----------------------------------------------
 
 
++    LoProp analysis:
      ----------------
 
 
 
  Input file to MOLDEN was generated!
 
 
++    Static properties:
      ------------------
 
 
      LoProp Charges per center
 

                   C1       S2       O3       NP4      O5       S6       O7       O8       O9       O10   
      Nuclear      6.0000  16.0000   8.0000  93.0000   8.0000  16.0000   8.0000   8.0000   8.0000   8.0000
      Electronic -12.3624 -14.1266 -12.5129 -49.5491 -11.8143 -14.6358 -11.8901 -12.5227 -12.1017 -12.5238
 
      Total       -6.3624   1.8734  -4.5129  43.4509  -3.8143   1.3642  -3.8901  -4.5227  -4.1017  -4.5238
 

                   H11      H12      H13   
      Nuclear      1.0000   1.0000   1.0000
      Electronic  -6.8078  -6.3339  -6.8189
 
      Total       -5.8078  -5.3339  -5.8189
--
 
 
      Natural Bond Order analysis for root number:  1
 
++    Natural Bond Order analysis
      ---------------------------
      Based on LoProp computed density
      -------------------------------------------------------------------------------------
      Atom A       Atom B       Bond Order | Atom A       Atom B       Bond Order
        S2           NP4            1.730  |   NP4          S6             1.636
        O5           S6             0.889  |   NP4          O9             1.623
        S6           O7             0.884  |   NP4          O8             0.790
        O3           NP4            0.833  |   NP4          O10            1.592
      -------------------------------------------------------------------------------------
      NBO located      7.965 lone pair electrons.
      NBO located     19.956 electrons involved in    8 bonds.
      NBO located      0.931 non-bonded electrons on atom O3        
      NBO located      0.931 non-bonded electrons on atom O3        
      NBO located      0.985 non-bonded electrons on atom NP4       
      NBO located      0.985 non-bonded electrons on atom NP4       
      NBO located      1.016 non-bonded electrons on atom NP4       
      NBO located      1.016 non-bonded electrons on atom NP4       
      NBO located      0.975 non-bonded electrons on atom NP4       
      NBO located      0.946 non-bonded electrons on atom O10       
      The remaining  148.293 electrons are to be considered as diffuse
--
 
--
 
 
  Input file to MOLDEN was generated!
 
 
  Input file to MOLDEN was generated!
 
      Average orbitals are written to the RASORB file
      Natural orbitals for root   1 are written to the RASORB.1 file
      Spin density orbitals for root   1 are written to the SPDORB.1 file
 
--- Stop Module: rasscf at Fri Dec 14 17:36:56 2018 /rc=_RC_ALL_IS_WELL_ ---
*** files: NpO2_CH3SO2_SO2-m1-doublet.dump_SOOrb-2.VTZP.LprOrb NpO2_CH3SO2_SO2-m1-doublet.dump_SOOrb-2.VTZP.rasscf.molden
           NpO2_CH3SO2_SO2-m1-doublet.dump_SOOrb-2.VTZP.rasscf.molden.1 NpO2_CH3SO2_SO2-m1-doublet.dump_SOOrb-2.VTZP.LoProp.molden
           NpO2_CH3SO2_SO2-m1-doublet.dump_SOOrb-2.VTZP.RasOrb NpO2_CH3SO2_SO2-m1-doublet.dump_SOOrb-2.VTZP.RasOrb.1 NpO2_CH3SO2_SO2-m1-doublet.dump_SOOrb-2.VTZP.rasscf.h5
           NpO2_CH3SO2_SO2-m1-doublet.dump_SOOrb-2.VTZP.SpdOrb.1 xmldump
    saved to directory /home/vallet/John-methylsulfonyl/NpO2_CH3SO2_SO2-m1/doublet-geom/optg-freq-pbe0/SO-XMS/NaturalOrbitals-openmolcas
--- Module rasscf spent 12 minutes 3 seconds ---

>>> COPY NpO2_CH3SO2_SO2-m1-doublet.dump_SOOrb-2.VTZP.rasscf.molden /home/vallet/John-methylsulfonyl/NpO2_CH3SO2_SO2-m1/doublet-geom/optg-freq-pbe0/SO-XMS/NaturalOrbitals-openmolcas/NpO2_CH3SO2_SO2-m1-doublet.dump_SOOrb.VTZP.SODSOrb.Z.Z1.molden

    Timing: Wall=1721.75 User=12463.16 System=325.68
