
   OpenMP run-time library returned nthreads =  8
 operating system is UNIX !

 force (u-0-11.local) : TURBOMOLE V7.2 ( 21471 ) 11 Oct 2017 at 17:04:51
 Copyright (C) 2017 TURBOMOLE GmbH, Karlsruhe


    2018-02-06 05:37:53.489 



                             T U R B O M O L E   

                          a o f o r c e - program

                        using direct algorithms for

                       SCF level calculations of
                         * harmonic force constants
                         * hyperpolarizabilities
                         * IR and RAMAN intensities
                         * VCD intensities

                       DFT level calculations of
                         * harmonic force constants
                         * IR intensities
                                                   
       Stephan Boecker, Peter Deglmann, Filipp Furche and Marco Haeser
                          Quantum Chemistry Group
                          Universitaet  Karlsruhe
                                   Germany

 
 

          OpenMP Shared-Memory Parallelization:  8 CPUs.

            By: Erik P. Almaraz and Filipp Furche
            Copyright 2009-2011 by UCI and TURBOMOLE GmbH.

 
 
     References :
 
       RI-J implementation:
         Peter Deglmann, Klaus May, Filipp Furche, Reinhart Ahlrichs
                 Chem. Phys. Lett. 384:103 (2004)
 
       Efficiency, technical details:
         Peter Deglmann, Filipp Furche, Reinhart Ahlrichs
                 Chem. Phys. Lett. 362:511 (2002)
 
       Search of lowest eigenvalues by iterative diagonalization:
         Peter Deglmann, Filipp Furche
                 J. Chem. Phys. 117:9535 (2002)
 
       Vibrational circular dichroism implementation:
        Kevin Reiter, Michael Kuehn, Florian Weigend
                 J. Chem. Phys. 146:054102 (2017)  
 
 


              +--------------------------------------------------+
              | Atomic coordinate, charge and isotop information |
              +--------------------------------------------------+

                    atomic coordinates            atom    charge  isotop
         -3.03526110    2.08381363    2.38906506    c      6.000     0
         -1.98121132   -1.17821089    2.33981114    s     16.000     0
         -2.35333119   -1.86627144   -0.45346429    o      8.000     0
          2.18972148   -1.30740733   -1.79905579    np    93.000     0
          5.79549910   -0.86154862   -3.57415602    o      8.000     0
          0.87379522   -0.87155277    2.75641357    o      8.000     0
          2.69010341   -4.54709968   -1.29678866    o      8.000     0
          1.50139940    1.93296535   -2.12395173    o      8.000     0
         -2.68902406    2.84439505    4.27260285    h      1.000     0
         -1.93522208    3.08192447    0.96074671    h      1.000     0
         -5.04784875    2.11655762    1.94780066    h      1.000     0
          3.99137989   -1.42756539   -5.41902350    o      8.000     0
 
       center of nuclear mass  :    1.60284628   -1.14907430   -1.25551191
       center of nuclear charge:    1.47019170   -1.09050047   -1.14004479

              +--------------------------------------------------+
              |               basis set information              |
              +--------------------------------------------------+

              we will work with the 1s 3p 5d 7f 9g ... basis set
              ...i.e. with spherical basis functions...

   type   atoms  prim   cont   basis
   ---------------------------------------------------------------------------
    c        1     66     46   aug-cc-pVTZ   [5s4p3d2f|19s6p3d2f]
    s        1    122     50   aug-cc-pVTZ   [6s5p3d2f|42s17p3d2f]
    o        6     66     46   aug-cc-pVTZ   [5s4p3d2f|19s6p3d2f]
    np       1    213    117   SVP(6g)   [10s9p5d4f3g|14s13p10d8f6g]
    h        3     25     23   aug-cc-pVTZ   [4s3p2d|6s3p2d]
   ---------------------------------------------------------------------------
   total:   12    872    558
   ---------------------------------------------------------------------------

   total number of primitive shells          :  186
   total number of contracted shells         :  172
   total number of cartesian basis functions :  671
   total number of SCF-basis functions       :  558

 number of unique ecp types :                     1
 
             FOUND RI-J FLAG !
 

 NOTE: THIS IS A PRELIMINARY IMPLEMENTATION. THE RI APPROXIMATION IS
       PRESENTLY USED FOR CPKS CONTRIBUTIONS TO THE HESSIAN ONLY! SEE
       MANUAL FOR FURTHER DETAILS.

  
 AUXILIARY BASIS SET information:

              we will work with the 1s 3p 5d 7f 9g ... basis set
              ...i.e. with spherical basis functions...

   type   atoms  prim   cont   basis
   ---------------------------------------------------------------------------
    c        1     70     49   aug-cc-pVTZ   [6s4p3d1f1g|12s5p4d2f1g]
    s        1     77     51   aug-cc-pVTZ   [8s4p3d1f1g|14s5p5d2f1g]
    o        6     70     49   aug-cc-pVTZ   [6s4p3d1f1g|12s5p4d2f1g]
    np       1    268    205   def-TZVPP   [14s7p7d6f5g2h2i|18s7p7d6f6g3h5i]
    h        3     16     11   aug-cc-pVTZ   [3s1p1d|5s2p1d]
   ---------------------------------------------------------------------------
   total:   12    883    632
   ---------------------------------------------------------------------------

   total number of primitive shells          :  135
   total number of contracted shells         :  180
   total number of cartesian basis functions :  836
   total number of SCF-basis functions       :  632


 symmetry group of the molecule :   c1 

 the group has the following generators :
   c1(z)

    1 symmetry operations found

 there are 1 real representations :   a   

 maximum number of shells which are related by symmetry :  1


 determining totally symmetric integral contributions 
    - equivalent to irreducible tensor elements - 
 which can be formed within each triple of representations :

             representation triple      contributions

              a     a     a               1
       UHF mode switched on !

    mo occupation :
   irrep   mo's   occupied
    a      558       54
 
 number of basis functions   :                    558
 number of occupied orbitals :                     54
 
 ALPHA-Occupation:                    54
 BETA-Occupation :                    53
  MOs are in ASCII format !


 reading orbital data $uhfmo_alpha  from file alpha
 orbital characterization : scfconv=7

 reading orbital data $uhfmo_beta  from file beta
 orbital characterization : scfconv=7
 time elapsed for calculating density matrices :   0.211 sec

 number of non-frozen orbitals          :   558
 number of non-frozen occupied orbitals :    54

 number of non-frozen orbitals          :   558
 number of non-frozen occupied orbitals :    53
 Blocking parameters 
 shells:
    index      start shell   last shell  start bf    last bf    #bf 
       1             1         172             1        671    671
  
           ----------------------
               RI - INFORMATION
           ----------------------

 biggest AO integral is expected to be    25.741671788

 Threshold for integral neglect (rithr2):   0.37E-11
 Threshold for integral neglect (rithr1):   0.37E-11

 Contributions to RI integral batches: 
  neglected integral batches:                  1323
  direct contribution:                         7399
  memory contribution:                  6156
 Core memory available (ricore):               500 MiB
 Core memory needed for (P|Q) and Cholesky:      4 MiB
 Core memory used for integrals:               346 MiB
 
 ****************************************
 Memory allocated for RIDFT: 349 MiB
 ****************************************
 
  
           ------------------
           density functional
           ------------------
 PBE0 hybrid functional
 exchange:    3/4 (LDA+PBE) + 1/4 HF
 correlation: LDA (PW) + PBE

 iterations will be done with small grid
  
 spherical integration : Lebedev's spherical grid
 spherical gridsize    :                     4
    i.e. gridpoints    :                   434
 value for diffuse not defined
 radial integration    : Chebyshev 2nd kind (scaling 3)
 radial gridsize       :                     6
 integration cells     :                    12
 partition function    : becke
 partition sharpness   :                     3
  
 
 Derivatives of quadrature weights will be included
 
          Overall gridpoints after grid construction =        138469
 Ordering of quadrature gridpoints disabled.
 
 
 
 
 OCCUPIED-OCCUPIED TENSOR SPACES :

          IRREP   tensor space dimension   number of roots

           a              5725                  30
 
 OCCUPIED-VIRTUAL TENSOR SPACES :

          IRREP   tensor space dimension   number of roots

           a             53981                  30
 
 
 
 
 CONSTRUCTING integral bounds

 setting up bound for integral derivative estimation

 increment for numerical differentiation : 0.00050000
 
 machine precision:   2.220446049250313E-016

 integral neglect threshold       :  0.10E-09
 integral storage threshold THIZE :  0.10E-04
 integral storage threshold THIME :         5

 
 
 
 PREPARING NUMERICAL INTEGRATION
 
 Remaining core memory for DFT =                  3626 MB
 
 Memory needed per atom    =                 10568 KiB
 
     i. e.                    12 atoms per loop

 Calculating ground state density on molecular grid

 Integral of ground state total density: Na =   106.9999718236985    

 Integral of ground state spin density:  Nb =  0.9999997719346991    


 
 
 CONSTRUCTING first deriv. of <mu|x,y,z|nu> -> Dip. deriv.
  dipole integral derivatives will be neglected if
  expon. factor <0.745156E-12
      ...terminated. cpu:       0.62       wall:       0.08
 
 
 
 
 CONSTRUCTING first deriv. of  <mu|nu>
                               <mu|h|nu>    -> RHS
              second deriv. of <mu|nu>      -> Hessian
                               <mu|h|nu>    -> Hessian
                               nucl. rep.   -> Hessian
     integrals are neglected if expon. factor <  7.451564828614008E-014
 
 CONSTRUCTING ECP contribution              -> RHS
 
                                            -> Hessian
      ...terminated. cpu:      27.54       wall:      23.24
 
 
 
 
 CONSTRUCTING second deriv. of 2e energy    -> Hessian
   treating Coulomb (and exchange) contribution
     integrals will be neglected if total contribution <  7.451564828614008E-010
      ...terminated. cpu:    4720.47       wall:     594.13
   treating exchange-correlation contribution
      ...terminated. cpu:    1109.06       wall:     146.82
 
 
 
 
 CONSTRUCTING S(i,j)xi
      ...terminated. cpu:       0.52       wall:       0.09
 
 
 
 
 CONSTRUCTING <i|x,y,z|j>*S(i,j)xi          -> Dip. deriv.
      ...terminated. cpu:       1.20       wall:       0.21
 
 
 
 
 CONSTRUCTING epsilon(i)*S(i,j)xi*S(i,j)chi -> Hessian
      ...terminated. cpu:       0.01       wall:       0.00
 
 
 
 
 CONSTRUCTING G(a,i)[S(k,l)xi]              -> RHS
              G(i,j)[S(k,l)xi]*S(i,j)chi    -> Hessian
 
         Maximum core memory set to                   4000 MB
         This corresponds to                   576 vectors in CAO basis
      ...terminated. cpu:    7525.12       wall:     948.75
 
 
 
 
 CONSTRUCTING G(mu,nu)[D(kap,lam)]xi
 
          Maximum core memory set to                   4000 MB
          Atoms treated simultaneously :                    12
      ...terminated. cpu:    4992.25       wall:     627.52
 
 
 
 
 CONSTRUCTING F(a,i)xi                      -> RHS
              F(i,j)xi*S(i,j)chi            -> Hessian
 
        Maximum core memory set to                  4000 MB
        This corresponds to                  1038 vectors in CAO basis
      ...terminated. cpu:      10.90       wall:       2.06
 
 
 
 
 CONSTRUCTING epsilon(i)*S(a,i)xi           -> RHS
      ...terminated. cpu:       2.58       wall:       0.93
 
 
 
 
 SOLVING CPHF equations
 
 Residuum convergence criterium   :  1.000000000000000E-005
 
 Maximum number of Davidson iterations set to                    25
  Switching to small grid
        preparing numerical integration ....
          Overall gridpoints after grid construction =         42012

 Calculating ground state density on molecular grid

 Integral of ground state total density: Na =   107.0001519089219    

 Integral of ground state spin density:  Nb =  0.9999964062604163    




                       Nonorthonormal Krylov Space Iteration


 total number of roots to be determined:  30


 maximum core memory set to  4000 MB,
 corresponding to      575 vectors in CAO basis


 maximum number of simultaneously treated vectors (including degeneracy):       30


 Iteration IRREP Converged      Max. Euclidean
                 roots          residual norm

    1       a        0        1.839185690341849D-01
 
    2       a        0        2.928066321314194D-02
 
    3       a        0        1.678520172007953D-02
 
    4       a        0        2.158272627321998D-02
 
    5       a        0        3.747669041840810D-03
 
    6       a        0        1.564150957051146D-03
 
    7       a        0        2.944412132505898D-04
 
    8       a       10        5.867015373565872D-05
 
    9       a       30        9.183342509391896D-06
 

 converged!

  Switching to fine grid
        preparing numerical integration ....
          Overall gridpoints after grid construction =        138469

 Calculating ground state density on molecular grid

 Integral of ground state total density: Na =   106.9999718236996    

 Integral of ground state spin density:  Nb =  0.9999997719346875    



 Iteration IRREP Converged      Max. Euclidean
                 roots          residual norm

   10       a        0        1.257756306255409D-04
 

 NOTE: Residual norms are larger than 1.00D-05 due to mgrid option!

      ...terminated. cpu:   41870.42       wall:    5260.53
 
 
 
 
 CONSTRUCTING <a|x,y,z|i>*U(a,i)xi          -> Dip. deriv.
      ...terminated. cpu:       0.77       wall:       0.10
 
 
 
 
 CONSTRUCTING RHS(a,i)xi*U(a,i)chi          -> Hessian
      ...terminated. cpu:       0.15       wall:       0.02
 
 
 
 

            -----------------------
            permanent dipole moment
            -----------------------

                                   x                y                z
    electronic part       : -115.5389651943   104.2358241839    83.6369073576
     nuclear   part       :  112.6685329094  -102.5786377005   -81.3040872330
     total                :   -2.8704322849     1.6571864834     2.3328201246

 with reference to the point :   0.0000000        0.0000000        0.0000000
 (given in atomic units)
    | dipole |       :   10.3020551441  debye

   ***  dipole moment & cartesian dipole gradients written onto
        $dipole, $dipgrad,  file=<dipgrad>  ***

             -----------------------------------
             rotational and vibrational analysis
             -----------------------------------


            ==============================================================
            ATOMIC WEIGHTS (average over the natural occurance of isotops)
            ==============================================================
            ('*' denotes special isotop !)
              1     c                12.01115
              2     s                32.06400
              3     o                15.99940
              4     np              237.04820
              5     o                15.99940
              6     o                15.99940
              7     o                15.99940
              8     o                15.99940
              9     h                 1.00797
             10     h                 1.00797
             11     h                 1.00797
             12     o                15.99940

          -------------------------------------------------
          CARTESIAN FORCE CONSTANT MATRIX (hartree/bohr**2)
         (translational & rotational space projected out)
          -------------------------------------------------

   ATOM              1 c                           2 s 
                  dx        dy        dz        dx        dy        dz
   1 c     dx  0.5474760
           dy  0.0650276 0.3565897
           dz -0.0018889-0.0004506 0.5678935
   2 s     dx -0.0426927 0.0221364-0.0012581 0.4903046
           dy -0.0101831-0.1392767 0.0420305 0.0378237 0.2935376
           dz  0.0087218 0.0094590-0.0488148 0.0067616 0.0286058 0.4937043
   3 o     dx  0.0041829 0.0013277 0.0071590-0.0724930-0.0083555-0.0119369
           dy  0.0022877-0.0028935-0.0391830-0.0144626-0.0696559-0.0459129
           dz -0.0048650-0.0106435-0.0109680-0.0209197-0.0697410-0.3557523
   4 np    dx -0.0011653-0.0020693-0.0015123-0.0099898 0.0059751 0.0322088
           dy  0.0008368-0.0006026-0.0017098-0.0008442 0.0133605 0.0041092
           dz -0.0024548 0.0012395-0.0013114 0.0342885-0.0026338-0.0095277
   5 o     dx -0.0003994 0.0007336-0.0000347 0.0041736-0.0008298-0.0018529
           dy -0.0000547 0.0002129 0.0000620 0.0008941-0.0005332-0.0003469
           dz -0.0000095 0.0002628 0.0000169 0.0006545-0.0001920-0.0008907
   6 o     dx -0.0244137 0.0022488-0.0060250-0.3604560-0.0310173-0.0279164
           dy  0.0329583 0.0095654-0.0040485-0.0507397-0.0604557 0.0014792
           dz -0.0038330-0.0006717 0.0051532-0.0110764-0.0007174-0.0761307
   7 o     dx  0.0003260 0.0003951 0.0005565-0.0006282-0.0012582-0.0032030
           dy  0.0003574-0.0002242 0.0000325-0.0019598-0.0018941 0.0011346
           dz  0.0005825-0.0000351 0.0004334-0.0030556 0.0005595-0.0013701
   8 o     dx  0.0000110 0.0009969 0.0002769-0.0029443 0.0020076-0.0021147
           dy -0.0000078 0.0012820-0.0001653 0.0052392-0.0072353-0.0042477
           dz  0.0006350-0.0011944 0.0004364-0.0030830-0.0012183-0.0009486
   9 h     dx -0.0518983-0.0184106-0.0419940-0.0005617 0.0007116 0.0074945
           dy -0.0188177-0.0788357-0.0947010-0.0062519-0.0024355-0.0219612
           dz -0.0427367-0.0912727-0.2756488-0.0006515 0.0011917-0.0024964
  10 h     dx -0.1237235-0.0733703 0.1022611 0.0048143 0.0087875-0.0069301
           dy -0.0771124-0.1045254 0.0966900-0.0125328-0.0306745 0.0224535
           dz  0.1034397 0.0929042-0.1796612-0.0002864 0.0008810 0.0006942
  11 h     dx -0.3078123 0.0012182-0.0576256-0.0085642-0.0038212-0.0016978
           dy  0.0047425-0.0411713 0.0014877 0.0211586 0.0054500 0.0046025
           dz -0.0578232 0.0012148-0.0573815 0.0008197-0.0003498-0.0023136
  12 o     dx  0.0001093-0.0002341 0.0000850-0.0009626 0.0001597 0.0004651
           dy -0.0000346-0.0001207-0.0000444-0.0004610-0.0001872 0.0006249
           dz  0.0002320-0.0008124-0.0001475-0.0021935 0.0015839 0.0038465

   ATOM              3 o                           4 np
                  dx        dy        dz        dx        dy        dz
   3 o     dx  0.0923496
           dy  0.0166005 0.0750822
           dz  0.0480369 0.0940298 0.3653341
   4 np    dx -0.0259039-0.0022556-0.0086111 0.3013384
           dy -0.0013389-0.0197047-0.0029482-0.1505691 0.9817183
           dz -0.0028002 0.0021873-0.0074624-0.1155568-0.1125863 0.2848237
   5 o     dx -0.0044151-0.0000758 0.0036346-0.1127588-0.0095217 0.0572017
           dy -0.0006428 0.0010942 0.0005329-0.0114052-0.0253285 0.0101643
           dz  0.0012420-0.0000526 0.0004818 0.0400912 0.0072354-0.0240611
   6 o     dx  0.0045314-0.0010093-0.0233723-0.0084315 0.0037435-0.0095617
           dy -0.0069135 0.0091164-0.0079666 0.0005193-0.0190207-0.0025860
           dz -0.0477700-0.0096104 0.0064794-0.0024172-0.0016363-0.0265320
   7 o     dx -0.0021302 0.0043270 0.0026117-0.0583789 0.0724502-0.0005391
           dy  0.0074786 0.0048069-0.0047216 0.0761788-0.4585159 0.0553717
           dz -0.0005670-0.0019692 0.0021807-0.0016633 0.0586629-0.0527460
   8 o     dx  0.0019326-0.0066590 0.0014482-0.0598258 0.0767845-0.0006911
           dy -0.0098813 0.0031577 0.0085992 0.0758149-0.4437226 0.0507002
           dz  0.0006852 0.0011546 0.0021252-0.0004860 0.0502380-0.0512026
   9 h     dx  0.0005441 0.0033493 0.0014179 0.0004439-0.0001889 0.0002496
           dy  0.0026099-0.0088483-0.0038267-0.0010321-0.0012437 0.0002592
           dz -0.0001591-0.0009805 0.0016395-0.0006744 0.0006963-0.0001462
  10 h     dx -0.0009856-0.0019646 0.0001690-0.0003118 0.0038808-0.0002417
           dy  0.0004033 0.0071178-0.0028599 0.0009445-0.0026216 0.0000813
           dz -0.0001642 0.0000951 0.0001243 0.0006698-0.0028308 0.0008441
  11 h     dx  0.0020444-0.0001912 0.0012434 0.0000804-0.0005855-0.0008342
           dy -0.0020099 0.0007392 0.0000538 0.0001451-0.0009798 0.0012348
           dz -0.0002254-0.0001533-0.0004442 0.0001210 0.0006939-0.0000577
  12 o     dx  0.0003427 0.0000535-0.0007935-0.0250970 0.0053527 0.0409399
           dy  0.0007218-0.0000119-0.0005082 0.0077536-0.0233386-0.0034321
           dz  0.0064999 0.0003950-0.0037380 0.0578304 0.0000757-0.1126206

   ATOM              5 o                           6 o 
                  dx        dy        dz        dx        dy        dz
   5 o     dx  0.2443701
           dy  0.0511852 0.0398031
           dz  0.0852582 0.0324248 0.1571463
   6 o     dx -0.0035480-0.0008321-0.0008188 0.3876845
           dy  0.0004806-0.0000231-0.0001272 0.0227917 0.0508726
           dz  0.0063819 0.0014294 0.0005171 0.0584063 0.0128849 0.0939384
   7 o     dx  0.0053367-0.0098122 0.0044635 0.0002270 0.0012744 0.0015024
           dy -0.0200720-0.0009461-0.0033104 0.0048131 0.0027872-0.0087243
           dz  0.0020023-0.0000205 0.0004057 0.0026295-0.0048506 0.0018063
   8 o     dx -0.0058288 0.0087066 0.0011207 0.0051567-0.0014467-0.0018513
           dy  0.0184139 0.0102543 0.0032078-0.0083604 0.0049904 0.0083966
           dz -0.0027028-0.0015550-0.0007962 0.0020410 0.0057206-0.0028740
   9 h     dx -0.0000426-0.0000070-0.0000377-0.0003754-0.0004788-0.0007877
           dy  0.0000542 0.0000501 0.0000323-0.0001572 0.0015180 0.0020078
           dz  0.0001631 0.0000216 0.0000659 0.0011339 0.0007460 0.0012649
  10 h     dx  0.0002858 0.0000133 0.0000610-0.0000397-0.0022998 0.0007098
           dy -0.0002104 0.0000223-0.0000815 0.0005242 0.0069343-0.0028700
           dz -0.0002738 0.0000083-0.0000679-0.0005606-0.0006310-0.0006565
  11 h     dx -0.0002136-0.0000266-0.0000304-0.0007492 0.0036387-0.0005252
           dy  0.0001052 0.0000262 0.0000031 0.0068511-0.0073456 0.0001969
           dz  0.0000176-0.0000035 0.0000024 0.0002398-0.0001292 0.0014306
  12 o     dx -0.1269598-0.0380187-0.1319945 0.0004138 0.0002153 0.0012603
           dy -0.0402631-0.0246321-0.0394025 0.0004040 0.0010609-0.0006855
           dz -0.1497952-0.0427173-0.1328203 0.0038043-0.0004916-0.0043967

   ATOM              7 o                           8 o 
                  dx        dy        dz        dx        dy        dz
   7 o     dx  0.0428552
           dy -0.0678629 0.4342722
           dz  0.0000635-0.0600632 0.0402147
   8 o     dx  0.0128552-0.0007950-0.0005796 0.0490998
           dy  0.0022416 0.0100583-0.0015106-0.0776385 0.4182861
           dz -0.0015308 0.0012713 0.0130195-0.0013994-0.0456181 0.0384942
   9 h     dx -0.0000463 0.0000120-0.0000689-0.0004032 0.0002249 0.0000507
           dy  0.0002644 0.0000915 0.0001045-0.0005546 0.0007441 0.0000593
           dz  0.0000966-0.0001355 0.0000173 0.0006063-0.0005210-0.0000547
  10 h     dx  0.0000212-0.0006066 0.0001786-0.0000883-0.0028889 0.0001242
           dy -0.0000464 0.0004026-0.0000823-0.0011918 0.0012413 0.0005267
           dz  0.0000100 0.0004816-0.0001372-0.0003955 0.0022001-0.0011673
  11 h     dx  0.0000067 0.0001642 0.0001325-0.0001441 0.0003769 0.0003275
           dy -0.0001299 0.0000056-0.0002501-0.0003153 0.0008563 0.0003198
           dz -0.0000226-0.0000477 0.0000427 0.0002373-0.0005864-0.0004176
  12 o     dx -0.0004444 0.0022922 0.0003455 0.0001792-0.0035345 0.0053384
           dy -0.0018431 0.0091559 0.0094545 0.0001054 0.0000873-0.0097045
           dz -0.0040084 0.0187111-0.0038671 0.0033422-0.0204548 0.0033857

   ATOM              9 h                          10 h 
                  dx        dy        dz        dx        dy        dz
   9 h     dx  0.0517649
           dy  0.0193085 0.0817695
           dz  0.0470886 0.1011123 0.2951289
  10 h     dx  0.0031828 0.0043577-0.0055904 0.1291535
           dy  0.0080811 0.0072120-0.0095888 0.0788774 0.1137846
           dz  0.0136396 0.0142417-0.0152267-0.1106587-0.1017159 0.1886216
  11 h     dx -0.0026087 0.0002287 0.0007426-0.0122486 0.0022098-0.0054437
           dy -0.0126133-0.0000034-0.0012245-0.0146484 0.0010067-0.0056901
           dz -0.0271061 0.0028285-0.0043755 0.0202299-0.0027335 0.0064155
  12 o     dx  0.0000006-0.0000099-0.0000189-0.0000603 0.0000535 0.0000239
           dy  0.0000112-0.0000187-0.0000448-0.0001383 0.0000999 0.0000557
           dz  0.0000533-0.0001567-0.0001682-0.0003129 0.0001803 0.0002171

   ATOM             11 h                          12 o 
                  dx        dy        dz        dx        dy        dz
  11 h     dx  0.3301394
           dy -0.0032527 0.0413875
           dz  0.0635352-0.0007078 0.0571278
  12 o     dx  0.0000698-0.0000331-0.0000232 0.1524087
           dy  0.0000408 0.0000286-0.0000260 0.0337034 0.0378766
           dz  0.0001758-0.0000262-0.0000289 0.0843720 0.0437129 0.2503379
 

   *** projected hessian written onto $hessian (projected), file=<hessian> ***

 dipole moment in principle axis system (a.u.) :
    -3.8963604789     1.1161914109    -0.0137851127
 norm :   4.05310970447453     

 rotational constants b for rotations around axis of inertia
 and optical intensities for (1 <-- 0) transition

   b   :     0.0831011968     0.0211404509     0.0194104140   (cm**(-1))
   b   :        2491.3112         633.7748         581.9096     (MHz)
  int. :    15.1816249813     1.2458832658     0.0001900293     (a.u.)

   x   :     0.7229905404    -0.0393233649     0.6897378861
   y   :    -0.1493736324     0.9658652177     0.2116409676
   z   :    -0.6745162685    -0.2560430710     0.6924375419

   ***  normal modes written onto $vibrational normal modes, file=<vib_normal_modes>  ***

 keyword $vibrational reduced masses missing in file <control>


   ***  vibrational spectroscopic data written onto$vibrational spectrum   
        file=<vibspectrum>  ***

          ---------------------------------------------------
          NORMAL MODES and VIBRATIONAL FREQUENCIES (cm**(-1))
          ---------------------------------------------------

 imaginary wave numbers indicate a negative curvature of the energy surface.
 zero frequency modes have no physical meaning except being generators of
 translations and rotations. each vibrational normal mode - given in terms of
 cartesian displacement vectors of all atoms - has been normalized to unity.
 to obtain mass-weigthed normal coordinates in a.u. divide the tabulated
 modes by sqrt(reduced mass * 1822.88853).
 band intensities or cross sections refer to independent non-degenerate normal
 modes, that is, the intensities of degenerate modes have yet to be added.
 dDIP/dQ is the normal mode derivative of the dipole moment.


       mode               1        2        3        4        5        6

     frequency           0.00     0.00     0.00     0.00     0.00     0.00

     symmetry                                                             

        IR                -        -        -        -        -        - 
|dDIP/dQ|   (a.u.)     0.0000   0.0000   0.0000   0.0000   0.0000   0.0000
intensity (km/mol)       0.00     0.00     0.00     0.00     0.00     0.00
intensity (  %   )       0.00     0.00     0.00     0.00     0.00     0.00
 
       RAMAN              -        -        -        -        -        - 
 
  1   c           x   0.21696  0.07073  0.14303  0.10147 -0.02525  0.30915
                  y  -0.04588 -0.11100  0.23990  0.34263  0.02589  0.06852
                  z   0.14311  0.26006 -0.17628  0.09496 -0.08055  0.24960
  2   s           x   0.20195 -0.09379 -0.07178 -0.02916 -0.11181  0.21088
                  y  -0.04899 -0.15993  0.17093  0.30018 -0.00399  0.03777
                  z   0.02789 -0.02005 -0.20513  0.11109  0.04600  0.18290
  3   o           x   0.03463 -0.09461 -0.01916 -0.10976 -0.15636  0.10617
                  y  -0.00218  0.10975  0.25210  0.28396 -0.11107  0.07868
                  z   0.03865 -0.08637 -0.23214  0.12582  0.07832  0.18678
  4   np          x  -0.04267 -0.04994  0.06529 -0.11320 -0.15433  0.08215
                  y   0.00285  0.00063 -0.02228  0.08839 -0.28728 -0.04171
                  z  -0.22024  0.01913 -0.06097  0.03301  0.01200  0.05565
  5   o           x  -0.14572 -0.00575  0.15735 -0.12931 -0.15934  0.04181
                  y   0.01834 -0.02248 -0.22575 -0.07468 -0.45673 -0.12971
                  z  -0.42568  0.10307  0.07493 -0.04068 -0.04074 -0.04839
  6   o           x   0.22766 -0.08334 -0.06609 -0.00903 -0.09978  0.23255
                  y  -0.06635 -0.34187 -0.02702  0.19129 -0.06190 -0.05139
                  z  -0.13553  0.04225 -0.09847  0.05326  0.00619  0.10003
  7   o           x  -0.02506 -0.22004 -0.16745 -0.23243 -0.23508  0.00118
                  y  -0.00718 -0.06981 -0.06565  0.07407 -0.27947 -0.06193
                  z  -0.30244 -0.26572 -0.10886  0.05945  0.14285  0.00591
  8   o           x  -0.04981  0.11805  0.29183  0.00944 -0.07188  0.16848
                  y   0.01069  0.06465  0.02998  0.11215 -0.28271 -0.01782
                  z  -0.12694  0.30175 -0.01968  0.01015 -0.11711  0.11108
  9   h           x   0.33088  0.08630  0.12724  0.16762  0.01262  0.38855
                  y  -0.07779 -0.29768  0.17884  0.34978  0.09558  0.03810
                  z   0.13506  0.33258 -0.14872  0.07991 -0.11566  0.24729
 10   h           x   0.13641  0.13865  0.25955  0.11393 -0.01241  0.29566
                  y  -0.02673 -0.03841  0.19576  0.28304 -0.06292  0.05116
                  z   0.09446  0.36309 -0.11739  0.06290 -0.13272  0.22708
 11   h           x   0.19105  0.07776  0.16073  0.09436 -0.02856  0.29680
                  y  -0.03123  0.03050  0.38243  0.41775  0.06054  0.13295
                  z   0.26236  0.23850 -0.24644  0.13296 -0.06291  0.31069
 12   o           x  -0.25664 -0.01194  0.18470 -0.18698 -0.19171 -0.03066
                  y   0.05503  0.23452 -0.06869 -0.02344 -0.48633 -0.05645
                  z  -0.32847  0.03027  0.00000  0.00000  0.00000  0.00000

reduced mass(g/mol)    23.532   10.509   12.331   15.093   38.951   10.830


       mode               7        8        9       10       11       12

     frequency          37.43    74.37   122.61   138.03   187.06   201.67

     symmetry            a        a        a        a        a        a   

        IR               YES      YES      YES      YES      YES      YES
|dDIP/dQ|   (a.u.)     0.0022   0.0009   0.0009   0.0015   0.0045   0.0014
intensity (km/mol)       8.74     1.56     1.34     4.25    35.63     3.52
intensity (  %   )       2.49     0.44     0.38     1.21    10.14     1.00
 
       RAMAN             YES      YES      YES      YES      YES      YES
 
  1   c           x  -0.12876 -0.22014  0.21325 -0.26865 -0.04865 -0.00467
                  y  -0.04228 -0.17327  0.06773  0.05031  0.14365 -0.00031
                  z  -0.12187  0.27721  0.21646  0.24673  0.00512 -0.00389
  2   s           x  -0.11993  0.01212 -0.07076 -0.06036 -0.32208  0.00840
                  y  -0.03941 -0.09228 -0.01994  0.11578  0.02063  0.00360
                  z  -0.12034  0.01755 -0.06964  0.02588  0.31350  0.01384
  3   o           x   0.07271 -0.00767 -0.10377 -0.06010 -0.25970  0.09268
                  y   0.03571  0.09809  0.18693  0.22108 -0.20456  0.03456
                  z  -0.17060 -0.02407 -0.11181  0.00343  0.37625 -0.01063
  4   np          x   0.06197  0.00667  0.00420  0.03179  0.06013 -0.00639
                  y   0.02027  0.03218 -0.00007 -0.06457  0.02513 -0.00203
                  z   0.06254 -0.01734  0.00389 -0.01167 -0.06556 -0.00743
  5   o           x  -0.18188  0.05136 -0.02605 -0.01672  0.07524 -0.00179
                  y  -0.13265 -0.19805  0.12515  0.19473 -0.09891  0.00990
                  z  -0.51013  0.01484 -0.03268 -0.04536 -0.05255  0.01166
  6   o           x  -0.15389 -0.00476 -0.04878 -0.07044 -0.30689 -0.00908
                  y  -0.05974  0.09908 -0.22776  0.22329 -0.21873 -0.00984
                  z   0.08732 -0.02426 -0.03861 -0.00797  0.29304  0.10399
  7   o           x   0.05298 -0.11369  0.20950  0.10724  0.11282  0.00294
                  y   0.01830  0.03409  0.06307 -0.07394  0.05274  0.00099
                  z   0.05824  0.10564  0.20732 -0.09203 -0.12991  0.00107
  8   o           x   0.16506  0.11250 -0.16846 -0.03129  0.09120 -0.01627
                  y   0.05235  0.04178 -0.05429 -0.08634  0.01197 -0.00539
                  z   0.16386 -0.13236 -0.16893  0.06758 -0.09315 -0.01850
  9   h           x  -0.27170 -0.22843  0.32986 -0.28259  0.01209 -0.54073
                  y  -0.08605 -0.27621 -0.14987 -0.05508  0.30461 -0.14672
                  z  -0.07788  0.32017  0.28288  0.29200 -0.07036  0.15467
 10   h           x  -0.02385 -0.32051  0.28520 -0.37157  0.04402  0.38246
                  y  -0.00688  0.00277  0.09256  0.22530 -0.08583  0.11625
                  z  -0.01638  0.32135  0.28919  0.29021 -0.08481  0.37559
 11   h           x  -0.09560 -0.23131  0.20757 -0.28152 -0.04392  0.12042
                  y  -0.03539 -0.27757  0.31680 -0.06435  0.29303  0.02208
                  z  -0.27244  0.32092  0.26088  0.29627 -0.00885 -0.56908
 12   o           x  -0.51153  0.05353  0.00516 -0.01809  0.07764  0.01529
                  y  -0.09554 -0.20203 -0.11927  0.20139 -0.09633 -0.00656
                  z  -0.19947  0.01316  0.01171 -0.04520 -0.04413  0.00018

reduced mass(g/mol)    15.569    5.777    6.845    7.738   18.017    1.371


       mode              13       14       15       16       17       18

     frequency         241.78   253.28   257.40   271.05   311.50   324.41

     symmetry            a        a        a        a        a        a   

        IR               YES      YES      YES      YES      YES      YES
|dDIP/dQ|   (a.u.)     0.0016   0.0013   0.0034   0.0000   0.0008   0.0038
intensity (km/mol)       4.75     3.17    20.82     0.00     1.28    25.09
intensity (  %   )       1.35     0.90     5.92     0.00     0.36     7.14
 
       RAMAN             YES      YES      YES      YES      YES      YES
 
  1   c           x  -0.03633  0.06663  0.02890 -0.02364 -0.15484 -0.02665
                  y  -0.01008 -0.03925  0.01434 -0.00725 -0.04819  0.04520
                  z  -0.03550 -0.04933  0.03914 -0.02325 -0.15458  0.01146
  2   s           x   0.00658 -0.02603 -0.02694  0.01091  0.06951 -0.02191
                  y   0.00255 -0.06378 -0.00300  0.00337  0.02119  0.02408
                  z   0.00933  0.04068 -0.03472  0.01068  0.06814  0.01494
  3   o           x   0.22162 -0.03344  0.00513 -0.03316 -0.13537  0.00197
                  y   0.11395 -0.04518 -0.02046  0.00169  0.22693 -0.04118
                  z  -0.06294  0.04202 -0.01701  0.01718  0.04194  0.03319
  4   np          x  -0.00970  0.01621  0.06895 -0.00151  0.00548  0.05882
                  y  -0.00311 -0.02566  0.02429 -0.00065  0.00176  0.00385
                  z  -0.01010  0.00430  0.07194 -0.00189  0.00587 -0.05876
  5   o           x  -0.00723 -0.05663  0.00225 -0.11714  0.00181  0.09331
                  y   0.02305  0.34888 -0.00467  0.62982 -0.00864 -0.00267
                  z   0.01789 -0.06048 -0.06922 -0.07584 -0.00484 -0.09056
  6   o           x  -0.03796 -0.02998 -0.01545  0.01840  0.11349 -0.01844
                  y  -0.05933 -0.03716  0.02502 -0.00648 -0.23351 -0.05325
                  z   0.25020  0.03727 -0.00986 -0.03205 -0.06464  0.01326
  7   o           x  -0.00656 -0.43736 -0.43039 -0.16866  0.00600 -0.47708
                  y  -0.00178 -0.05503 -0.14331 -0.05232  0.00157 -0.00142
                  z  -0.00558  0.36791 -0.51787 -0.16807  0.00447  0.46874
  8   o           x  -0.02796  0.36188 -0.50075  0.20672 -0.03091 -0.49354
                  y  -0.00949 -0.01659 -0.14519  0.06493 -0.00982 -0.04731
                  z  -0.03235 -0.42747 -0.43525  0.21137 -0.03300  0.49414
  9   h           x   0.42735  0.07666  0.02596 -0.07045 -0.43360 -0.03624
                  y   0.17816  0.03253 -0.07010  0.03166  0.28833  0.02300
                  z  -0.19809 -0.08040  0.07389 -0.03031 -0.23965  0.02302
 10   h           x  -0.41347  0.13794  0.06772 -0.02353 -0.25619 -0.04391
                  y  -0.12723 -0.14730  0.03916 -0.00689 -0.08045  0.06995
                  z  -0.40774 -0.07315  0.08663 -0.02288 -0.25515  0.02010
 11   h           x  -0.15000  0.07828  0.03499 -0.01732 -0.12644 -0.03088
                  y  -0.08890  0.04627  0.08479 -0.05897 -0.46060  0.01952
                  z   0.47139 -0.09496  0.01702 -0.05580 -0.31674  0.02522
 12   o           x   0.02446 -0.06089 -0.05815  0.11917 -0.00789  0.09318
                  y  -0.01545  0.34683 -0.07947 -0.62717  0.00701 -0.00044
                  z  -0.00111 -0.05176  0.01231  0.07838 -0.00024 -0.09096

reduced mass(g/mol)     3.149   15.126   17.845   15.777    4.067   17.367


       mode              19       20       21       22       23       24

     frequency         401.60   447.92   471.12   537.81   667.20   841.30

     symmetry            a        a        a        a        a        a   

        IR               YES      YES      YES      YES      YES      YES
|dDIP/dQ|   (a.u.)     0.0034   0.0033   0.0073   0.0057   0.0045   0.0049
intensity (km/mol)      20.94    19.60    95.10    57.21    35.36    43.06
intensity (  %   )       5.95     5.58    27.05    16.27    10.06    12.25
 
       RAMAN             YES      YES      YES      YES      YES      YES
 
  1   c           x   0.15956  0.00084  0.01199 -0.01396  0.15056  0.02468
                  y  -0.16273 -0.00052 -0.01500  0.03313 -0.39091 -0.01334
                  z  -0.11033 -0.00000 -0.00763  0.00345 -0.03033 -0.02007
  2   s           x  -0.02002 -0.00537 -0.02427 -0.14909 -0.06310  0.01877
                  y  -0.13040 -0.00186 -0.00951 -0.05811  0.20320 -0.00469
                  z   0.06049 -0.00389  0.02762  0.16801  0.00049 -0.01662
  3   o           x  -0.13114 -0.01563  0.05144  0.46202  0.03237  0.04470
                  y   0.21481 -0.00345  0.02822  0.13492 -0.00684  0.02340
                  z  -0.01969 -0.00059  0.00601  0.09405  0.04482  0.04937
  4   np          x   0.00539  0.02244 -0.07047  0.00140  0.00113 -0.00368
                  y  -0.00150  0.00738 -0.00405 -0.00072 -0.00074  0.00816
                  z  -0.00496  0.02562  0.06928 -0.00094 -0.00089  0.00114
  5   o           x  -0.00064 -0.62735  0.43526 -0.02771 -0.00045  0.09113
                  y  -0.00440 -0.08257  0.00780  0.00072  0.00032  0.03176
                  z   0.00227  0.28506 -0.55754  0.04518  0.00339  0.12596
  6   o           x  -0.05023 -0.00168 -0.01186 -0.11035 -0.03962 -0.05357
                  y   0.23958 -0.00019  0.00837 -0.04222 -0.02905 -0.00647
                  z   0.06195 -0.01698 -0.05779 -0.47742 -0.02645 -0.04773
  7   o           x   0.01147  0.00482  0.02724  0.00488 -0.00204 -0.09970
                  y  -0.00196  0.00194  0.03800 -0.03207 -0.00177  0.59896
                  z  -0.01117  0.00305 -0.03861  0.00510  0.00268 -0.08624
  8   o           x  -0.03961  0.00532  0.03178 -0.01388 -0.00266  0.14163
                  y  -0.01348  0.00073 -0.03669  0.03401  0.01728 -0.71472
                  z   0.04368  0.00450 -0.01944  0.00338 -0.00283  0.08122
  9   h           x   0.22421  0.00109  0.01970  0.03567  0.09293 -0.00036
                  y   0.10261 -0.00641  0.02666  0.30132 -0.60497 -0.05265
                  z  -0.23185  0.00231 -0.02636 -0.11311  0.06535  0.00148
 10   h           x   0.40120  0.00671  0.04893  0.24269 -0.01567 -0.05665
                  y  -0.58817 -0.00126 -0.08041 -0.41419 -0.10163  0.12069
                  z  -0.22583  0.00399 -0.02490 -0.11656  0.04616  0.01873
 11   h           x   0.19683  0.00167  0.01762  0.01841  0.12111  0.01546
                  y   0.09687  0.00823  0.02567  0.29804 -0.59716 -0.05118
                  z  -0.25044 -0.00304 -0.02816 -0.12795  0.09430  0.01437
 12   o           x  -0.00126  0.31162  0.54443 -0.04512 -0.00336 -0.12324
                  y  -0.00438 -0.02169  0.04645 -0.00472 -0.00066 -0.03542
                  z   0.00274 -0.64706 -0.40367  0.02692  0.00040 -0.09332

reduced mass(g/mol)     4.352   16.266   17.988   10.047    4.454   15.664


       mode              25       26       27       28       29       30

     frequency         915.79   924.02   939.83   987.69  1003.19  1007.81

     symmetry            a        a        a        a        a        a   

        IR               YES      YES      YES      YES      YES      YES
|dDIP/dQ|   (a.u.)     0.0020   0.0104   0.0141   0.0140   0.0023   0.0098
intensity (km/mol)       7.08   191.48   351.59   347.19     9.11   169.89
intensity (  %   )       2.01    54.46   100.00    98.75     2.59    48.32
 
       RAMAN             YES      YES      YES      YES      YES      YES
 
  1   c           x  -0.10562 -0.08506  0.08503  0.07323 -0.07543 -0.06339
                  y  -0.03255 -0.04341  0.06104  0.06254 -0.06005 -0.01581
                  z  -0.10346  0.10375 -0.10575 -0.09053  0.08597 -0.07705
  2   s           x  -0.00433 -0.03461  0.03767 -0.10921  0.14838  0.23586
                  y  -0.00078  0.05439 -0.06351 -0.03419  0.02937  0.07441
                  z  -0.00350  0.01746 -0.01752  0.11431 -0.13061  0.26094
  3   o           x  -0.00157 -0.01132  0.00957 -0.01144 -0.00649 -0.08169
                  y   0.03658 -0.05455  0.06559 -0.01516  0.02275 -0.09679
                  z   0.05533 -0.11055  0.11154 -0.17743  0.21771 -0.41852
  4   np          x   0.00004  0.00665  0.00451 -0.00332 -0.00410  0.00211
                  y  -0.00018 -0.03686 -0.02470  0.00053 -0.00013  0.00059
                  z   0.00004  0.00480  0.00318  0.00299  0.00425  0.00156
  5   o           x   0.00042  0.01844 -0.01076  0.25402  0.22952 -0.01266
                  y   0.00014  0.01255  0.00148  0.07212  0.06414 -0.00362
                  z   0.00007  0.01814 -0.00948  0.19958  0.17300 -0.00997
  6   o           x   0.06648  0.11950 -0.12597  0.18227 -0.25700 -0.37911
                  y  -0.01755 -0.01291  0.02374  0.04326 -0.04739 -0.05091
                  z   0.00682  0.02112 -0.02292  0.00849  0.00159 -0.08558
  7   o           x  -0.00036 -0.05073 -0.02761  0.01258  0.01638 -0.00604
                  y   0.00179  0.30437  0.17477 -0.06732 -0.08310  0.00319
                  z  -0.00030 -0.04360 -0.02660  0.00849  0.00887 -0.00558
  8   o           x  -0.00004 -0.04278 -0.03609 -0.00895 -0.01504 -0.00464
                  y   0.00091  0.22207  0.17471  0.05486  0.08350 -0.00676
                  z  -0.00001 -0.02656 -0.01846 -0.00801 -0.01155 -0.00480
  9   h           x   0.32329  0.06982 -0.09029 -0.09745  0.10985  0.24047
                  y  -0.58740  0.34515 -0.36625 -0.33503  0.32793 -0.43805
                  z   0.05152 -0.08977  0.10787  0.10836 -0.11139  0.05775
 10   h           x   0.17472  0.27820 -0.28070 -0.23308  0.22556  0.13970
                  y   0.05074 -0.67804  0.69552  0.57313 -0.54019  0.09832
                  z   0.17051 -0.07663  0.06801  0.05034 -0.03920  0.16109
 11   h           x  -0.13668 -0.01055  0.00310 -0.00241  0.00090 -0.08500
                  y   0.64623  0.29433 -0.33406 -0.32613  0.35428  0.42598
                  z   0.13110 -0.17774  0.20094  0.19294 -0.19324  0.13451
 12   o           x  -0.00035 -0.01975  0.00789 -0.19449 -0.16847  0.00924
                  y  -0.00004  0.00059  0.00736 -0.06850 -0.06065  0.00348
                  z  -0.00003 -0.02088  0.00951 -0.25874 -0.23373  0.01395

reduced mass(g/mol)     1.399    4.413    3.057    6.424    7.001   10.317


       mode              31       32       33       34       35       36

     frequency        1285.42  1436.86  1446.44  3042.63  3150.53  3160.30

     symmetry            a        a        a        a        a        a   

        IR               YES      YES      YES      YES      YES      YES
|dDIP/dQ|   (a.u.)     0.0032   0.0013   0.0017   0.0038   0.0025   0.0004
intensity (km/mol)      18.71     2.95     4.84    26.30    10.72     0.32
intensity (  %   )       5.32     0.84     1.38     7.48     3.05     0.09
 
       RAMAN             YES      YES      YES      YES      YES      YES
 
  1   c           x   0.04072  0.03990 -0.04471  0.01253 -0.06571  0.06169
                  y  -0.13161  0.00754 -0.01377 -0.04016 -0.02033  0.01952
                  z  -0.00021 -0.04373 -0.04333 -0.00000 -0.06405 -0.06949
  2   s           x  -0.00356  0.00412 -0.00289 -0.00002 -0.00051  0.00025
                  y   0.00127  0.00337 -0.00092  0.00018 -0.00016  0.00037
                  z   0.00324 -0.00530 -0.00274 -0.00003 -0.00050 -0.00037
  3   o           x   0.00056 -0.00157  0.00052 -0.00014  0.00023 -0.00008
                  y  -0.00066 -0.00224 -0.00032 -0.00008 -0.00003 -0.00008
                  z  -0.00623  0.00133 -0.00010 -0.00016  0.00044  0.00021
  4   np          x   0.00010 -0.00006  0.00002 -0.00001 -0.00000 -0.00000
                  y  -0.00051  0.00022  0.00001  0.00003 -0.00000 -0.00002
                  z   0.00006 -0.00001  0.00001 -0.00000 -0.00000  0.00001
  5   o           x  -0.00062  0.00034 -0.00005  0.00006 -0.00000 -0.00001
                  y  -0.00004  0.00003  0.00001  0.00001  0.00000  0.00000
                  z  -0.00033  0.00016 -0.00002  0.00002  0.00000  0.00000
  6   o           x   0.00613 -0.00065 -0.00020  0.00017  0.00040 -0.00017
                  y   0.00105 -0.00193  0.00047  0.00001  0.00023 -0.00011
                  z  -0.00067  0.00224  0.00038  0.00015  0.00018  0.00011
  7   o           x  -0.00024  0.00008  0.00005  0.00002  0.00001  0.00001
                  y   0.00177 -0.00070  0.00001 -0.00008  0.00000  0.00005
                  z  -0.00031  0.00014  0.00005  0.00001  0.00001 -0.00003
  8   o           x  -0.00168  0.00082 -0.00055  0.00000  0.00002  0.00007
                  y   0.00469 -0.00205 -0.00021 -0.00034  0.00000  0.00034
                  z   0.00021 -0.00019 -0.00055  0.00010  0.00002 -0.00017
  9   h           x  -0.19530 -0.65109  0.22389  0.10513  0.10999  0.08020
                  y   0.49203 -0.01487  0.35492  0.20493  0.25742  0.15296
                  z  -0.19298  0.10391 -0.22425  0.52946  0.64395  0.37040
 10   h           x  -0.30053  0.19486  0.51370  0.31075 -0.01086 -0.43097
                  y   0.48028 -0.26638  0.16197  0.27067 -0.00164 -0.40108
                  z   0.15491 -0.10418  0.50919 -0.40006 -0.01699  0.56279
 11   h           x   0.03080 -0.11784 -0.11290 -0.56418  0.69077 -0.38865
                  y   0.56267  0.14429 -0.32440 -0.00108 -0.01143  0.00579
                  z   0.02979  0.63791  0.31961 -0.12913  0.14293 -0.09766
 12   o           x   0.00029 -0.00014 -0.00001 -0.00001  0.00000 -0.00000
                  y   0.00025 -0.00012 -0.00003 -0.00002 -0.00000  0.00000
                  z   0.00060 -0.00033 -0.00004 -0.00006 -0.00000  0.00001

reduced mass(g/mol)     1.219    1.049    1.053    1.027    1.105    1.107
 

         **************************************************************
         *                                                            *
         *  zero point VIBRATIONAL energy  :      0.0571548  Hartree  *
         *    SCF-energy                   :  -1403.5707573           *
         *    SCF + E(vib0)                :  -1403.5136025           *
         *                                                            *
         **************************************************************




 time elapsed for vibrational analysis     0.10 sec


    ------------------------------------------------------------------------
         total  cpu-time : 16 hours 47 minutes and 13 seconds
         total wall-time :  2 hours  8 minutes and 34 seconds
    ------------------------------------------------------------------------

   ****  force : all done  ****


    2018-02-06 07:46:27.701 

aoforce ended normally 
