
   OpenMP run-time library returned nthreads =  4
 operating system is UNIX !

 force (u-0-11.local) : TURBOMOLE V7.3 ( 22142 ) 4 Jul 2018 at 18:12:42
 Copyright (C) 2018 TURBOMOLE GmbH, Karlsruhe


    2019-01-24 17:44:51.529 



                             T U R B O M O L E   

                          a o f o r c e - program

                        using direct algorithms for

                       SCF level calculations of
                         * harmonic force constants
                         * hyperpolarizabilities
                         * IR and RAMAN intensities
                         * VCD intensities

                       DFT level calculations of
                         * harmonic force constants
                         * IR intensities
                                                   
       Stephan Boecker, Peter Deglmann, Filipp Furche and Marco Haeser
                          Quantum Chemistry Group
                          Universitaet  Karlsruhe
                                   Germany

 
 

          OpenMP Shared-Memory Parallelization:  4 CPUs.

            By: Erik P. Almaraz and Filipp Furche
            Copyright 2009-2011 by UCI and TURBOMOLE GmbH.

 
 
     References :
 
       RI-J implementation:
         Peter Deglmann, Klaus May, Filipp Furche, Reinhart Ahlrichs
                 Chem. Phys. Lett. 384:103 (2004)
 
       Efficiency, technical details:
         Peter Deglmann, Filipp Furche, Reinhart Ahlrichs
                 Chem. Phys. Lett. 362:511 (2002)
 
       Search of lowest eigenvalues by iterative diagonalization:
         Peter Deglmann, Filipp Furche
                 J. Chem. Phys. 117:9535 (2002)
 
       Vibrational circular dichroism implementation:
        Kevin Reiter, Michael Kuehn, Florian Weigend
                 J. Chem. Phys. 146:054102 (2017)  
 
 


              +--------------------------------------------------+
              | Atomic coordinate, charge and isotop information |
              +--------------------------------------------------+

                    atomic coordinates            atom    charge  isotop
          0.92322477   -1.51010594    0.00000000    c      6.000     0
          0.29133624   -3.46550397    0.00000000    h      1.000     0
          2.05877128   -1.16030027    1.68943686    h      1.000     0
          2.05877128   -1.16030027   -1.68943686    h      1.000     0
         -1.31580776   -0.01129290    0.00000000    o      8.000     0
         -0.76020638    3.04445904    0.00000000    s     16.000     0
         -3.25608944    4.26304432    0.00000000    o      8.000     0
 
       center of nuclear mass  :   -1.03656231    1.79110633    0.00000000
       center of nuclear charge:   -0.94610371    1.65557600    0.00000000

              +--------------------------------------------------+
              |               basis set information              |
              +--------------------------------------------------+

              we will work with the 1s 3p 5d 7f 9g ... basis set
              ...i.e. with spherical basis functions...

   type   atoms  prim   cont   basis
   ---------------------------------------------------------------------------
    c        1     66     46   aug-cc-pVTZ   [5s4p3d2f|19s6p3d2f]
    h        3     25     23   aug-cc-pVTZ   [4s3p2d|6s3p2d]
    o        2     66     46   aug-cc-pVTZ   [5s4p3d2f|19s6p3d2f]
    s        1    122     50   aug-cc-pVTZ   [6s5p3d2f|42s17p3d2f]
   ---------------------------------------------------------------------------
   total:    7    395    257
   ---------------------------------------------------------------------------

   total number of primitive shells          :  135
   total number of contracted shells         :   85
   total number of cartesian basis functions :  299
   total number of SCF-basis functions       :  257

 
             FOUND RI-J FLAG !
 

 NOTE: THIS IS A PRELIMINARY IMPLEMENTATION. THE RI APPROXIMATION IS
       PRESENTLY USED FOR CPKS CONTRIBUTIONS TO THE HESSIAN ONLY! SEE
       MANUAL FOR FURTHER DETAILS.

  
 AUXILIARY BASIS SET information:

              we will work with the 1s 3p 5d 7f 9g ... basis set
              ...i.e. with spherical basis functions...

   type   atoms  prim   cont   basis
   ---------------------------------------------------------------------------
    c        1     70     49   aug-cc-pVTZ   [6s4p3d1f1g|12s5p4d2f1g]
    h        3     16     11   aug-cc-pVTZ   [3s1p1d|5s2p1d]
    o        2     70     49   aug-cc-pVTZ   [6s4p3d1f1g|12s5p4d2f1g]
    s        1     77     51   aug-cc-pVTZ   [8s4p3d1f1g|14s5p5d2f1g]
   ---------------------------------------------------------------------------
   total:    7    335    231
   ---------------------------------------------------------------------------

   total number of primitive shells          :   83
   total number of contracted shells         :   77
   total number of cartesian basis functions :  282
   total number of SCF-basis functions       :  231


 symmetry group of the molecule :   cs

 the group has the following generators :
   c1(z)
   mirror plane sigma(xy)

    2 symmetry operations found

 there are 2 real representations :   a'   a"  

 maximum number of shells which are related by symmetry :  2


 determining totally symmetric integral contributions 
    - equivalent to irreducible tensor elements - 
 which can be formed within each triple of representations :

             representation triple      contributions

              a'    a'    a'              1
              a'    a"    a"              1
              a"    a'    a"              1
              a"    a"    a'              1
       UHF mode switched on !

    mo occupation :
   irrep   mo's   occupied
    a'     162       16
    a"      95        5
 
 number of basis functions   :                    257
 number of occupied orbitals :                     21
 
 ALPHA-Occupation:                    21
 BETA-Occupation :                    20
  MOs are in ASCII format !


 reading orbital data $uhfmo_alpha  from file alpha
 orbital characterization : scfconv=6

 reading orbital data $uhfmo_beta  from file beta
 orbital characterization : scfconv=6
 time elapsed for calculating density matrices :   0.013 sec

 number of non-frozen orbitals          :   257
 number of non-frozen occupied orbitals :    21

 number of non-frozen orbitals          :   257
 number of non-frozen occupied orbitals :    20
 Blocking parameters 
 shells:
    index      start shell   last shell  start bf    last bf    #bf 
       1             1          85             1        299    299
          size of I/O Block in Byte:               15019368
  
           ----------------------
               RI - INFORMATION
           ----------------------

 biggest AO integral is expected to be     9.679779311

 Threshold for integral neglect (rithr2):   0.42E-10
 Threshold for integral neglect (rithr1):   0.42E-10

 Contributions to RI integral batches: 
  neglected integral batches:                   739
  direct contribution:                         2424
  memory contribution:                   492
 Core memory available (ricore):                 4 MiB
 Core memory needed for (P|Q) and Cholesky:      1 MiB
 Core memory used for integrals:                 4 MiB
 
 ****************************************
 Memory allocated for RIDFT: 4 MiB
 ****************************************
 
  
           ------------------
           density functional
           ------------------
 PBE0 hybrid functional
 exchange:    3/4 (LDA+PBE) + 1/4 HF
 correlation: LDA (PW) + PBE

 iterations will be done with small grid
  
 spherical integration : Lebedev's spherical grid
 spherical gridsize    :                     4
    i.e. gridpoints    :                   434
 value for diffuse not defined
 radial integration    : Chebyshev 2nd kind (scaling 3)
 radial gridsize       :                     6
 integration cells     :                     6
 partition function    : becke
 partition sharpness   :                     3
  
 
 Derivatives of quadrature weights will be included
 
          Overall gridpoints after grid construction =         38606
 Ordering of quadrature gridpoints disabled.
 
 
 
 
 OCCUPIED-OCCUPIED TENSOR SPACES :

          IRREP   tensor space dimension   number of roots

           a'              553                  10
           a"              288                   5
 
 OCCUPIED-VIRTUAL TENSOR SPACES :

          IRREP   tensor space dimension   number of roots

           a'             5486                  10
           a"             4210                   5
 
 
 
 
 CONSTRUCTING integral bounds

 setting up bound for integral derivative estimation

 increment for numerical differentiation : 0.00050000
 
 machine precision:   2.220446049250313E-016

 integral neglect threshold       :  0.10E-09
 integral storage threshold THIZE :  0.10E-04
 integral storage threshold THIME :         5

 
 
 
 PREPARING NUMERICAL INTEGRATION
 
 Remaining core memory for DFT =                  1957 MB
 
 Memory needed per atom    =                  2102 KiB
 
     i. e.                     7 atoms per loop

 Calculating ground state density on molecular grid

 Integral of ground state total density: Na =   40.99999864938859    

 Integral of ground state spin density:  Nb =   1.000001447617098    


 
 
 CONSTRUCTING first deriv. of <mu|x,y,z|nu> -> Dip. deriv.
  dipole integral derivatives will be neglected if
  expon. factor <0.167224E-10
      ...terminated. cpu:       0.08       wall:       0.02
 
 
 
 
 CONSTRUCTING first deriv. of  <mu|nu>
                               <mu|h|nu>    -> RHS
              second deriv. of <mu|nu>      -> Hessian
                               <mu|h|nu>    -> Hessian
                               nucl. rep.   -> Hessian
     integrals are neglected if expon. factor <  1.000000000000000E-012
      ...terminated. cpu:       1.48       wall:       0.85
 
 
 
 
 CONSTRUCTING second deriv. of 2e energy    -> Hessian
   treating Coulomb (and exchange) contribution
     integrals will be neglected if total contribution <  1.672240802675585E-008
      ...terminated. cpu:     189.83       wall:      47.46
   treating exchange-correlation contribution
      ...terminated. cpu:     207.04       wall:     118.40
 
 
 
 
 CONSTRUCTING S(i,j)xi
      ...terminated. cpu:       0.03       wall:       0.01
 
 
 
 
 CONSTRUCTING <i|x,y,z|j>*S(i,j)xi          -> Dip. deriv.
      ...terminated. cpu:       0.04       wall:       0.01
 
 
 
 
 CONSTRUCTING epsilon(i)*S(i,j)xi*S(i,j)chi -> Hessian
      ...terminated. cpu:       0.00       wall:       0.00
 
 
 
 
 CONSTRUCTING G(a,i)[S(k,l)xi]              -> RHS
              G(i,j)[S(k,l)xi]*S(i,j)chi    -> Hessian
 
         Maximum core memory set to                   2000 MB
         This corresponds to                  1438 vectors in CAO basis
      ...terminated. cpu:     174.61       wall:      43.65
 
 
 
 
 CONSTRUCTING G(mu,nu)[D(kap,lam)]xi
 
          Maximum core memory set to                   2000 MB
          Atoms treated simultaneously :                     7
 max of dfo   36.6636581684365     
      ...terminated. cpu:     198.36       wall:      49.59
 
 
 
 
 CONSTRUCTING F(a,i)xi                      -> RHS
              F(i,j)xi*S(i,j)chi            -> Hessian
 
        Maximum core memory set to                  2000 MB
        This corresponds to                  2754 vectors in CAO basis
      ...terminated. cpu:       0.34       wall:       0.09
 
 
 
 
 CONSTRUCTING epsilon(i)*S(a,i)xi           -> RHS
      ...terminated. cpu:       0.28       wall:       0.07
 
 
 
 
 SOLVING CPHF equations
 
 Residuum convergence criterium   :  1.000000000000000E-005
 
 Maximum number of Davidson iterations set to                    25
  Switching to small grid
        preparing numerical integration ....
          Overall gridpoints after grid construction =         11282

 Calculating ground state density on molecular grid

 Integral of ground state total density: Na =   40.99995989617667    

 Integral of ground state spin density:  Nb =  0.9999970706065554    




                       Nonorthonormal Krylov Space Iteration


 total number of roots to be determined: 15


 maximum core memory set to  2000 MB,
 corresponding to     1436 vectors in CAO basis


 maximum number of simultaneously treated vectors (including degeneracy):       15


 Iteration IRREP Converged      Max. Euclidean
                 roots          residual norm

    1       a'       0        1.009369880784703D-01
            a"       0        4.992391480775046D-02
 
    2       a'       0        1.660558519770460D-02
            a"       0        5.190097093259308D-03
 
    3       a'       0        3.956247943406033D-03
            a"       0        1.446609942323644D-03
 
    4       a'       0        9.804383277421285D-04
            a"       0        2.589538776183401D-04
 
    5       a'       0        1.625049440796607D-04
            a"       0        7.196119379187150D-05
 
    6       a'       8        1.922412901281798D-05
            a"       4        1.059366179609039D-05
 
    7       a'      10        9.791221289964502D-06
            a"       5        9.534853272508150D-06
 

 converged!

  Switching to fine grid
        preparing numerical integration ....
          Overall gridpoints after grid construction =         38606

 Calculating ground state density on molecular grid

 Integral of ground state total density: Na =   40.99999864938870    

 Integral of ground state spin density:  Nb =   1.000001447617100    



 Iteration IRREP Converged      Max. Euclidean
                 roots          residual norm

    8       a'       0        1.070091223775638D-04
            a"       0        1.018222077677051D-04
 

 NOTE: Residual norms are larger than 1.00D-05 due to mgrid option!

      ...terminated. cpu:     883.94       wall:     238.73
 
 
 
 
 CONSTRUCTING <a|x,y,z|i>*U(a,i)xi          -> Dip. deriv.
      ...terminated. cpu:       0.06       wall:       0.01
 
 
 
 
 CONSTRUCTING RHS(a,i)xi*U(a,i)chi          -> Hessian
      ...terminated. cpu:       0.00       wall:       0.00
 
 
 
 

            -----------------------
            permanent dipole moment
            -----------------------

                                   x                y                z
    electronic part       :   40.0159251763   -68.6950950193     0.0000000000
     nuclear   part       :  -38.7902522284    67.8786157951     0.0000000000
     total                :    1.2256729479    -0.8164792242     0.0000000000

 with reference to the point :   0.0000000        0.0000000        0.0000000
 (given in atomic units)
    | dipole |       :    3.7433163151  debye

   ***  dipole moment & cartesian dipole gradients written onto
        $dipole, $dipgrad,  file=<dipgrad>  ***

             -----------------------------------
             rotational and vibrational analysis
             -----------------------------------


            ==============================================================
            ATOMIC WEIGHTS (average over the natural occurance of isotops)
            ==============================================================
            ('*' denotes special isotop !)
              1     c                12.01115
              2     h                 1.00797
              3     h                 1.00797
              4     h                 1.00797
              5     o                15.99940
              6     s                32.06400
              7     o                15.99940

          -------------------------------------------------
          CARTESIAN FORCE CONSTANT MATRIX (hartree/bohr**2)
         (translational & rotational space projected out)
          -------------------------------------------------

   ATOM              1 c                           2 h 
                  dx        dy        dz        dx        dy        dz
   1 c     dx  0.4873183
           dy  0.0747106 0.5597116
           dz  0.0000000 0.0000000 0.5724369
   2 h     dx -0.0770928-0.0999515 0.0000000 0.0871203
           dy -0.0883803-0.2926404 0.0000000 0.0869100 0.3217858
           dz  0.0000000 0.0000000-0.0484608 0.0000000 0.0000000 0.0452572
   3 h     dx -0.1166883-0.0271819-0.1083393-0.0039742-0.0025184-0.0088608
           dy -0.0313359-0.0613131-0.0453051-0.0147534-0.0030820-0.0257289
           dz -0.1126004-0.0428110-0.2325231 0.0017680 0.0003636 0.0011523
   4 h     dx -0.1166883-0.0271819 0.1083393-0.0039742-0.0025184 0.0088608
           dy -0.0313359-0.0613131 0.0453051-0.0147534-0.0030820 0.0257289
           dz  0.1126004 0.0428110-0.2325231-0.0017680-0.0003636 0.0011523
   5 o     dx -0.1843585 0.0576086 0.0000000 0.0015128 0.0042139 0.0000000
           dy  0.0659271-0.1031740 0.0000000 0.0403326-0.0255183 0.0000000
           dz  0.0000000 0.0000000-0.0597989 0.0000000 0.0000000 0.0013628
   6 s     dx  0.0006374 0.0233030 0.0000000-0.0021534 0.0017719 0.0000000
           dy  0.0167585-0.0351779 0.0000000-0.0003970 0.0038017 0.0000000
           dz  0.0000000 0.0000000 0.0004547 0.0000000 0.0000000-0.0011402
   7 o     dx  0.0068721-0.0013068 0.0000000-0.0014385 0.0005212 0.0000000
           dy -0.0063440-0.0060932 0.0000000 0.0026126-0.0012648 0.0000000
           dz  0.0000000 0.0000000 0.0004143 0.0000000 0.0000000 0.0006765

   ATOM              3 h                           4 h 
                  dx        dy        dz        dx        dy        dz
   3 h     dx  0.1372621
           dy  0.0215887 0.0612103
           dz  0.1259206 0.0445354 0.2433627
   4 h     dx  0.0113894 0.0028275-0.0136124 0.1372621
           dy  0.0028275 0.0022192-0.0066628 0.0215887 0.0612103
           dz  0.0136124 0.0066628-0.0195953-0.1259206-0.0445354 0.2433627
   5 o     dx -0.0268398 0.0196653-0.0007721-0.0268398 0.0196653 0.0007721
           dy  0.0089734-0.0027665 0.0053939 0.0089734-0.0027665-0.0053939
           dz -0.0218374 0.0190699 0.0079706 0.0218374-0.0190699 0.0079706
   6 s     dx -0.0009060 0.0023785-0.0007766-0.0009060 0.0023785 0.0007766
           dy -0.0042599 0.0044013-0.0010281-0.0042599 0.0044013 0.0010281
           dz -0.0009441 0.0012819-0.0005313 0.0009441-0.0012819-0.0005313
   7 o     dx -0.0002433-0.0003707 0.0000730-0.0002433-0.0003707-0.0000730
           dy  0.0005706-0.0006693 0.0002090 0.0005706-0.0006693-0.0002090
           dz  0.0004487-0.0005160 0.0001641-0.0004487 0.0005160 0.0001641

   ATOM              5 o                           6 s 
                  dx        dy        dz        dx        dy        dz
   5 o     dx  0.3010352
           dy -0.0772999 0.3570125
           dz  0.0000000 0.0000000 0.0425420
   6 s     dx -0.0709854-0.0622885 0.0000000 0.5644038
           dy -0.0686051-0.2103136 0.0000000-0.1481119 0.3690352
           dz  0.0000000 0.0000000 0.0016145 0.0000000 0.0000000 0.0005887
   7 o     dx  0.0064755 0.0153819 0.0000000-0.4900904 0.2088753 0.0000000
           dy  0.0447517-0.0124735 0.0000000 0.1805686-0.1361481 0.0000000
           dz  0.0000000 0.0000000-0.0016616 0.0000000 0.0000000-0.0004551

   ATOM              7 o 
                  dx        dy        dz
   7 o     dx  0.4786677
           dy -0.2227302 0.1573182
           dz  0.0000000 0.0000000 0.0006976
 

   *** projected hessian written onto $hessian (projected), file=<hessian> ***

 dipole moment in principle axis system (a.u.) :
     0.6922793139    -1.2998699359     0.0000000000
 norm :   1.47272281804273     

 rotational constants b for rotations around axis of inertia
 and optical intensities for (1 <-- 0) transition

   b   :     0.1268329105     0.9551233434     0.1144136740   (cm**(-1))
   b   :        3802.3550       28633.8775        3430.0357     (MHz)
  int. :     0.4792506484     1.6896618504     0.0000000000     (a.u.)

   x   :     0.8805448930    -0.4739627531     0.0000000000
   y   :     0.4739627531     0.8805448930     0.0000000000
   z   :     0.0000000000     0.0000000000     1.0000000000

   ***  normal modes written onto $vibrational normal modes, file=<vib_normal_modes>  ***

 keyword $vibrational reduced masses missing in file <control>


   ***  vibrational spectroscopic data written onto$vibrational spectrum   
        file=<vibspectrum>  ***

          ---------------------------------------------------
          NORMAL MODES and VIBRATIONAL FREQUENCIES (cm**(-1))
          ---------------------------------------------------

 imaginary wave numbers indicate a negative curvature of the energy surface.
 zero frequency modes have no physical meaning except being generators of
 translations and rotations. each vibrational normal mode - given in terms of
 cartesian displacement vectors of all atoms - has been normalized to unity.
 to obtain mass-weigthed normal coordinates in a.u. divide the tabulated
 modes by sqrt(reduced mass * 1822.88853).
 band intensities or cross sections refer to independent non-degenerate normal
 modes, that is, the intensities of degenerate modes have yet to be added.
 dDIP/dQ is the normal mode derivative of the dipole moment.


       mode               1        2        3        4        5        6

     frequency           0.00     0.00     0.00     0.00     0.00     0.00

     symmetry                                                             

        IR                -        -        -        -        -        - 
|dDIP/dQ|   (a.u.)     0.0000   0.0000   0.0000   0.0000   0.0000   0.0000
intensity (km/mol)       0.00     0.00     0.00     0.00     0.00     0.00
intensity (  %   )       0.00     0.00     0.00     0.00     0.00     0.00
 
       RAMAN              -        -        -        -        -        - 
 
  1   c           x  -0.01076 -0.04260  0.20539  0.11564  0.35805  0.02624
                  y  -0.04026 -0.15934  0.05061  0.36611  0.07049  0.07733
                  z  -0.16656  0.26337  0.21111  0.02392 -0.12289  0.37606
  2   h           x  -0.04055 -0.16051  0.25460  0.14689  0.49197  0.12105
                  y  -0.03063 -0.12123  0.03471  0.35601  0.02721  0.04669
                  z  -0.07885  0.08825  0.57980 -0.07885 -0.32443  0.32517
  3   h           x   0.29225 -0.27194  0.44180  0.01856  0.20213 -0.13781
                  y  -0.07797 -0.29819  0.31849  0.32502  0.01677  0.13595
                  z  -0.36243  0.44626 -0.00325  0.09768 -0.00696  0.47420
  4   h           x  -0.30312  0.22891 -0.04863  0.20154  0.46605  0.15638
                  y  -0.03714 -0.15743 -0.16010  0.44349  0.27975  0.12882
                  z  -0.36243  0.44626 -0.00325  0.09768 -0.00696  0.47420
  5   o           x   0.01207  0.04777  0.16766  0.09169  0.25540 -0.04643
                  y  -0.00615 -0.02433 -0.00574  0.33033 -0.08286 -0.03124
                  z   0.24608 -0.00608  0.32380 -0.04478 -0.18112  0.17795
  6   s           x   0.05862  0.23203  0.09075  0.04285  0.04611 -0.19459
                  y  -0.01461 -0.05783  0.00824  0.33921 -0.04481 -0.00430
                  z   0.18510  0.20357 -0.18966  0.09244  0.10011  0.21988
  7   o           x   0.07719  0.30551  0.06008  0.02338 -0.03735 -0.25368
                  y   0.02341  0.09267 -0.05457  0.29932 -0.21575 -0.12531
                  z   0.63961 -0.11563  0.00000  0.00000  0.00000  0.00000

reduced mass(g/mol)     9.651    6.905    5.458    9.675    5.370    7.037


       mode               7        8        9       10       11       12

     frequency          48.82    96.82   243.00   425.83   755.33  1061.95

     symmetry            a"       a"       a'       a'       a'       a'  

        IR               YES      YES      YES      YES      YES      YES
|dDIP/dQ|   (a.u.)     0.0004   0.0009   0.0003   0.0012   0.0087   0.0103
intensity (km/mol)       0.28     1.57     0.18     2.54   133.18   189.76
intensity (  %   )       0.15     0.83     0.10     1.34    70.19   100.00
 
       RAMAN             YES      YES      YES      YES      YES      YES
 
  1   c           x   0.00000  0.00000 -0.11641 -0.20432 -0.06500 -0.50977
                  y   0.00000 -0.00000 -0.25481  0.32930  0.12174  0.32780
                  z   0.13826 -0.08875 -0.00000  0.00000 -0.00000 -0.00000
  2   h           x   0.00000  0.00000 -0.51744 -0.00107 -0.67925 -0.08023
                  y   0.00000 -0.00000 -0.12856  0.26850  0.32994  0.16427
                  z  -0.32969 -0.68778 -0.00000  0.00000 -0.00000  0.00000
  3   h           x  -0.37479 -0.12269 -0.04609 -0.22353 -0.01742 -0.31639
                  y  -0.26846 -0.46670 -0.49574  0.43597 -0.15403  0.17231
                  z   0.44377  0.08851  0.00192 -0.00511  0.01767 -0.05405
  4   h           x   0.37479  0.12269 -0.04609 -0.22353 -0.01742 -0.31639
                  y   0.26846  0.46670 -0.49574  0.43597 -0.15403  0.17231
                  z   0.44377  0.08851 -0.00192  0.00511 -0.01767  0.05405
  5   o           x  -0.00000 -0.00000  0.17714 -0.22847  0.27413  0.43456
                  y  -0.00000 -0.00000  0.14552  0.17108  0.42830 -0.37696
                  z  -0.09767  0.17706  0.00000 -0.00000  0.00000  0.00000
  6   s           x  -0.00000 -0.00000  0.04380  0.19283 -0.11670 -0.01643
                  y   0.00000 -0.00000  0.16027 -0.03453 -0.28907  0.03962
                  z  -0.10947  0.00064 -0.00000 -0.00000  0.00000 -0.00000
  7   o           x  -0.00000 -0.00000 -0.13913  0.02363  0.05353  0.02599
                  y  -0.00000 -0.00000 -0.20486 -0.42095  0.05826  0.01942
                  z   0.17812 -0.07955  0.00000 -0.00000  0.00000 -0.00000

reduced mass(g/mol)     2.209    1.659    4.436    7.738    8.206   10.084


       mode              13       14       15       16       17       18

     frequency        1170.60  1187.96  1209.54  1461.52  1485.91  1494.34

     symmetry            a"       a'       a'       a'       a"       a'  

        IR               YES      YES      YES      YES      YES      YES
|dDIP/dQ|   (a.u.)     0.0006   0.0022   0.0068   0.0005   0.0024   0.0030
intensity (km/mol)       0.75     8.42    83.03     0.41    10.60    15.98
intensity (  %   )       0.39     4.44    43.76     0.22     5.58     8.42
 
       RAMAN             YES      YES      YES      YES      YES      YES
 
  1   c           x   0.00000 -0.07998  0.02969  0.06654  0.00000  0.05148
                  y  -0.00000 -0.12273 -0.02890 -0.07128 -0.00000  0.02624
                  z  -0.13808  0.00000  0.00000 -0.00000  0.05298 -0.00000
  2   h           x   0.00000  0.65660  0.06033 -0.61372 -0.00000  0.26364
                  y  -0.00000 -0.35886 -0.04285  0.16273  0.00000 -0.06153
                  z   0.31267  0.00000 -0.00000  0.00000 -0.70820  0.00000
  3   h           x  -0.56680 -0.10888  0.06972 -0.25251 -0.02733 -0.51465
                  y   0.29234  0.42982 -0.07615  0.47053  0.49334 -0.18851
                  z   0.18177 -0.09427 -0.01530  0.08914 -0.06020  0.40149
  4   h           x   0.56680 -0.10888  0.06972 -0.25251  0.02733 -0.51465
                  y  -0.29234  0.42982 -0.07615  0.47053 -0.49334 -0.18851
                  z   0.18177  0.09427  0.01530 -0.08914 -0.06020 -0.40149
  5   o           x  -0.00000  0.04655 -0.02127  0.01699  0.00000  0.01067
                  y   0.00000  0.07304  0.02406 -0.02788 -0.00000  0.00839
                  z   0.06033 -0.00000 -0.00000 -0.00000  0.01153 -0.00000
  6   s           x  -0.00000 -0.00694 -0.40189 -0.00032  0.00000 -0.00114
                  y   0.00000 -0.00899  0.19417  0.00749 -0.00000 -0.00025
                  z   0.00079 -0.00000 -0.00000  0.00000  0.00083  0.00000
  7   o           x   0.00000 -0.00024  0.79181  0.00418 -0.00000  0.00121
                  y  -0.00000  0.00557 -0.37921 -0.00315  0.00000  0.00004
                  z  -0.00084 -0.00000 -0.00000  0.00000 -0.00077  0.00000

reduced mass(g/mol)     1.272    1.361   18.784    1.131    1.041    1.048


       mode              19       20       21

     frequency        3034.59  3104.88  3161.09

     symmetry            a'       a"       a'  

        IR               YES      YES      YES
|dDIP/dQ|   (a.u.)     0.0050   0.0036   0.0017
intensity (km/mol)      45.31    22.91     5.01
intensity (  %   )      23.88    12.07     2.64
 
       RAMAN             YES      YES      YES
 
  1   c           x  -0.04706  0.00000 -0.04490
                  y   0.00656  0.00000 -0.08060
                  z   0.00000  0.09481  0.00000
  2   h           x  -0.11298 -0.00000  0.29858
                  y  -0.32984 -0.00000  0.89063
                  z   0.00000  0.02425  0.00000
  3   h           x   0.35110 -0.38472  0.11689
                  y   0.11496 -0.13448  0.03032
                  z   0.54918 -0.57369  0.19993
  4   h           x   0.35110  0.38472  0.11689
                  y   0.11496  0.13448  0.03032
                  z  -0.54918 -0.57369 -0.19993
  5   o           x  -0.00148  0.00000  0.00043
                  y   0.00228 -0.00000 -0.00024
                  z  -0.00000 -0.00054 -0.00000
  6   s           x  -0.00010  0.00000 -0.00012
                  y  -0.00053  0.00000  0.00036
                  z   0.00000  0.00009  0.00000
  7   o           x  -0.00012  0.00000 -0.00002
                  y   0.00016 -0.00000  0.00010
                  z   0.00000 -0.00006  0.00000

reduced mass(g/mol)     1.033    1.107    1.102
 

         **************************************************************
         *                                                            *
         *  zero point VIBRATIONAL energy  :      0.0454316  Hartree  *
         *    SCF-energy                   :   -588.2454338           *
         *    SCF + E(vib0)                :   -588.2000022           *
         *                                                            *
         **************************************************************




 time elapsed for vibrational analysis     0.24 sec


    ------------------------------------------------------------------------
         total  cpu-time : 27 minutes and 57 seconds
         total wall-time :  8 minutes and 35 seconds
    ------------------------------------------------------------------------

   ****  force : all done  ****


    2019-01-24 17:53:26.328 

aoforce ended normally 
