7
Energy = -588.2454338284
C     0.4885495   -0.7991136    0.0000000 
H     0.1541685   -1.8338657    0.0000000 
H     1.0894548   -0.6140045    0.8940115 
H     1.0894548   -0.6140045   -0.8940115 
O    -0.6962955   -0.0059759    0.0000000 
S    -0.4022839    1.6110583    0.0000000 
O    -1.7230483    2.2559059    0.0000000 
