
 Primary working directories    : /state/partition1/vallet/537298.phlam-s-sakura
 Secondary working directories  : /state/partition1/vallet/537298.phlam-s-sakura
 Wavefunction directory         : /home/vallet/wfu/
 Main file repository           : /state/partition1/vallet/537298.phlam-s-sakura/

 SHA1      : 5e3d8ac6839c721e2824de82269b4736200146bd
 NAME      : 2015.1.37
 ARCHNAME  : linux/x86_64
 FC        : /opt/intel/composer_xe_2015.1.133/bin/intel64/ifort
 BLASLIB   : -Wl,-_start-group /opt/intel/mkl/lib/intel64/libmkl_intel_ilp64.a /opt/intel/mkl/lib/intel64/libmkl_intel_thread.a /opt/intel/mkl/lib/intel64/libmkl_core.a -Wl,-_end-group
 id        : lill

 Nodes      nprocs
 u-5-3.local    8

 Using customized tuning parameters: mindgm=1; mindgv=20; mindgc=4; mindgr=1; noblas=0; minvec=7
 default implementation of scratch files=sf  

  memory,1000,m;
  file, 1, trans-CH3OSO-m1.CCSD-T-CBS.int, new;
  file, 2, trans-CH3OSO-m1.CCSD-T-CBS.wfu, new;
 
 geometry={
 7
 Energy = -588.2785215898
 C     0.4563908   -0.8082214    0.0000000
 H     0.2128308   -1.8769436    0.0000000
 H     1.0772908   -0.5950375    0.8894573
 H     1.0772908   -0.5950375   -0.8894573
 O    -0.7260544   -0.0890595    0.0000000
 S    -0.3588610    1.6481105    0.0000000
 O    -1.7388878    2.3161889    0.0000000
 }
 
 basis={
   default,aug-cc-pVTZ;
 }
 {cfit,basis_coul=mycoul,basis_exch=myexch}
 
 charge=-1;
 spin=0;
 
 hf;
 uccsd(t);
 
 ehf(1) = ENERGR(1);
 ecor_ccsdt(1) = ENERGY(1)-ENERGR(1);
 ecor_mp2(1) = EMP2(1)-ENERGR(1);
 
 basis={
   default,aug-cc-pVQZ;
 }
 {cfit,basis_coul=mycoul,basis_exch=myexch}
 
 hf;
 uccsd(t);
 ehf(2) = ENERGR(1);
 ecor_ccsdt(2) = ENERGY(1)-ENERGR(1);
 ecor_mp2(2) = EMP2(1)-ENERGR(1);
 
 extrapolate, basis=avtz:avqz, eref=ehf, ecorr=ecor_ccsdt, method_r=km, method_c=LH4;
 extrapolate, basis=avtz:avqz, eref=ehf, ecorr=ecor_mp2, method_r=km, method_c=LH4;

 Variables initialized (889), CPU time= 0.00 sec
 Commands  initialized (702), CPU time= 0.01 sec, 572 directives.
 Default parameters read. Elapsed time= 0.07 sec

 Checking input...
 Passed
1


                                         ***  PROGRAM SYSTEM MOLPRO  ***
                                       Copyright, TTI GmbH Stuttgart, 2015
                                    Version 2015.1 linked Aug 10 2018 15:00:15


 **********************************************************************************************************************************
 LABEL *                                                                                 
  64 bit mpp version                                                                     DATE: 29-Jan-19          TIME: 10:55:12  
 **********************************************************************************************************************************

 SHA1:             5e3d8ac6839c721e2824de82269b4736200146bd
 **********************************************************************************************************************************

 Variable memory set to 1000000000 words,  buffer space   230000 words



 Permanent file  1  trans-ch3oso-m1.ccsd-t-cbs.int   assigned.  Implementation=df  
 Permanent file  2  trans-ch3oso-m1.ccsd-t-cbs.wfu   assigned.  Implementation=df  
 


 **********************************************************************************************************************************
 DATASETS  * FILE   NREC   LENGTH (MB)   RECORD NAMES
              1       1        0.03       500   
                                          VAR  

              2       1        0.03       500   
                                          VAR  

 PROGRAMS   *        TOTAL      FILE
 CPU TIMES  *         0.10      0.00
 REAL TIME  *         0.26 SEC
 DISK USED  *         0.26 MB      
 **********************************************************************************************************************************

Geometry recognized as XYZ

 SETTING BASIS          =    AUG-CC-PVTZ
 SETTING CHARGE         =        -1.00000000                                  
 SETTING SPIN           =     0.00000000D+00                                  


 Recomputing integrals since basis changed


 Using spherical harmonics

 Library entry C      S aug-cc-pVTZ          selected for orbital group  1
 Library entry C      P aug-cc-pVTZ          selected for orbital group  1
 Library entry C      D aug-cc-pVTZ          selected for orbital group  1
 Library entry C      F aug-cc-pVTZ          selected for orbital group  1
 Library entry H      S aug-cc-pVTZ          selected for orbital group  2
 Library entry H      P aug-cc-pVTZ          selected for orbital group  2
 Library entry H      D aug-cc-pVTZ          selected for orbital group  2
 Library entry O      S aug-cc-pVTZ          selected for orbital group  3
 Library entry O      P aug-cc-pVTZ          selected for orbital group  3
 Library entry O      D aug-cc-pVTZ          selected for orbital group  3
 Library entry O      F aug-cc-pVTZ          selected for orbital group  3
 Library entry S      S aug-cc-pVTZ          selected for orbital group  4
 Library entry S      P aug-cc-pVTZ          selected for orbital group  4
 Library entry S      D aug-cc-pVTZ          selected for orbital group  4
 Library entry S      F aug-cc-pVTZ          selected for orbital group  4


 PROGRAM * SEWARD (Integral evaluation for generally contracted gaussian basis sets)     Author: Roland Lindh, 1990

 Geometry written to block  1 of record 700


 Point group  Cs  



 ATOMIC COORDINATES

 NR  ATOM    CHARGE       X              Y              Z

   1  C       6.00    0.862453618   -1.527317094    0.000000000
   2  H       1.00    0.402191923   -3.546909355    0.000000000
   3  H       1.00    2.035784569   -1.124457909    1.680830696
   4  H       1.00    2.035784569   -1.124457909   -1.680830696
   5  O       8.00   -1.372043968   -0.168298064    0.000000000
   6  S      16.00   -0.678149007    3.114477468    0.000000000
   7  O       8.00   -3.286021703    4.376962674    0.000000000

 Bond lengths in Bohr (Angstrom)

 1-2  2.071374840  1-3  2.089065072  1-4  2.089065072  1-5  2.615322577  5-6  3.355310032
     ( 1.096124361)     ( 1.105485628)     ( 1.105485628)     ( 1.383969107)     ( 1.775553604)

 6-7  2.897390015
     ( 1.533232767)

 Bond angles

  1-5-6  109.37273835   2-1-3  108.22932001   2-1-4  108.22932001   2-1-5  108.46957696

  3-1-4  107.14041650   3-1-5  112.31273106   4-1-5  112.31273106   5-6-7  103.89669016

 NUCLEAR CHARGE:                   41
 NUMBER OF PRIMITIVE AOS:         366
 NUMBER OF SYMMETRY AOS:          324
 NUMBER OF CONTRACTIONS:          257   ( 162A'  +  95A"  )
 NUMBER OF CORE ORBITALS:           8   (   7A'  +   1A"  )
 NUMBER OF VALENCE ORBITALS:       19   (  14A'  +   5A"  )


 NUCLEAR REPULSION ENERGY  167.00691586


 Eigenvalues of metric

         1 0.516E-04 0.627E-04 0.221E-03 0.281E-03 0.444E-03 0.610E-03 0.707E-03 0.801E-03
         2 0.865E-04 0.747E-03 0.160E-02 0.236E-02 0.428E-02 0.480E-02 0.608E-02 0.659E-02


 Contracted 2-electron integrals neglected if value below      1.0D-11
 AO integral compression algorithm  1   Integral accuracy      1.0D-11

     1211.892 MB (compressed) written to integral file ( 46.9%)

     Node minimum: 135.791 MB, node maximum: 165.675 MB


 NUMBER OF SORTED TWO-ELECTRON INTEGRALS:   34775610.     BUFFER LENGTH:  32768
 NUMBER OF SEGMENTS:   3  SEGMENT LENGTH:   15962427      RECORD LENGTH: 524288

 Memory used in sort:      16.52 MW

 SORT1 READ   322849483. AND WROTE    32720454. INTEGRALS IN     96 RECORDS. CPU TIME:     4.89 SEC, REAL TIME:     5.26 SEC
 SORT2 READ   261034199. AND WROTE   278182326. INTEGRALS IN   4232 RECORDS. CPU TIME:     0.87 SEC, REAL TIME:     1.21 SEC

 Node minimum:    34766730.  Node maximum:    34777713. integrals

 OPERATOR DM      FOR CENTER  0  COORDINATES:    0.000000    0.000000    0.000000


 **********************************************************************************************************************************
 DATASETS  * FILE   NREC   LENGTH (MB)   RECORD NAMES
              1      18       21.32       500      610      700      900      950      970     1000      129      960     1100   
                                          VAR    BASINP    GEOM    SYMINP    ZMAT    AOBASIS   BASIS     P2S    ABASIS      S 
                                         1400     1410     1200     1210     1080     1600     1650     1700   
                                           T        V       H0       H01     AOSYM     SMH    MOLCAS    OPER   

              2       5        2.34       500      610      700     1000      520   
                                          VAR    BASINP    GEOM     BASIS   MCVARS    

 PROGRAMS   *        TOTAL       INT      FILE
 CPU TIMES  *         8.47      8.36      0.00
 REAL TIME  *        10.08 SEC
 DISK USED  *         4.34 GB      
 GA USED    *         0.00 MB       (max)       0.00 MB       (current)
 **********************************************************************************************************************************


 PROGRAM * RHF-SCF (CLOSED SHELL)       Authors: W. Meyer, H.-J. Werner


 NUMBER OF ELECTRONS:      21+   21-
 CONVERGENCE THRESHOLDS:    1.00E-05 (Density)    1.00E-07 (Energy)
 MAX. NUMBER OF ITERATIONS:       60
 INTERPOLATION TYPE:            DIIS
 INTERPOLATION STEPS:              2 (START)      1 (STEP)
 LEVEL SHIFTS:                  0.00 (CLOSED)  0.00 (OPEN) 



 Orbital guess generated from atomic densities. Full valence occupancy:   21   6

 Molecular orbital dump at record        2100.2

 Initial occupancy:  16   5

 ITERATION    DDIFF          GRAD             ENERGY        2-EL.EN.            DIPOLE MOMENTS         DIIS   ORB.
    1      0.000D+00      0.000D+00      -586.79343322    799.165820    3.52207   -3.70255    0.00000    0    start
    2      0.000D+00      0.631D-02      -586.84736120    792.550131    1.70509   -3.02776    0.00000    1    diag
    3      0.857D-02      0.514D-02      -586.90004466    794.720038    2.40362   -3.19425    0.00000    2    diag
    4      0.377D-02      0.621D-03      -586.90154838    794.677640    2.35139   -3.13805    0.00000    3    diag
    5      0.739D-03      0.236D-03      -586.90170903    794.516894    2.33715   -3.15358    0.00000    4    diag
    6      0.276D-03      0.947D-04      -586.90173822    794.541732    2.33874   -3.14543    0.00000    5    diag
    7      0.117D-03      0.170D-04      -586.90174063    794.536575    2.33785   -3.14503    0.00000    6    diag
    8      0.503D-04      0.462D-05      -586.90174086    794.537097    2.33782   -3.14460    0.00000    7    diag
    9      0.132D-04      0.132D-05      -586.90174088    794.536801    2.33774   -3.14450    0.00000    8    diag
   10      0.314D-05      0.404D-06      -586.90174088    794.537018    2.33774   -3.14449    0.00000    0    orth

 Final occupancy:  16   5

 !RHF STATE 1.1 Energy               -586.901740881830
 Nuclear energy                       167.00691586
 One-electron energy                -1151.17716558
 Two-electron energy                  397.26850884
 Virial quotient                       -1.00062200
 !RHF STATE 1.1 Dipole moment           2.33773994    -3.14449011     0.00000000
 Dipole moment /Debye                   5.94155309    -7.99197316     0.00000000

 Orbital energies:

         1.1          2.1          3.1          4.1          5.1          6.1          7.1          8.1          9.1         10.1
    -91.813597   -20.376560   -20.292089   -11.117285    -8.801103    -6.482990    -6.481000    -1.176640    -1.076802    -0.756859

        11.1         12.1         13.1         14.1         15.1         16.1         17.1         18.1
     -0.630962    -0.454067    -0.433847    -0.325468    -0.289018    -0.203382     0.122167     0.138025

         1.2          2.2          3.2          4.2          5.2          6.2          7.2
     -6.479711    -0.464439    -0.324458    -0.262853    -0.076942     0.141347     0.226840

 HOMO      5.2    -0.076942 =      -2.0937eV
 LUMO     17.1     0.122167 =       3.3243eV
 LUMO-HOMO         0.199108 =       5.4180eV


 **********************************************************************************************************************************
 DATASETS  * FILE   NREC   LENGTH (MB)   RECORD NAMES
              1      18       21.34       500      610      700      900      950      970     1000      129      960     1100   
                                          VAR    BASINP    GEOM    SYMINP    ZMAT    AOBASIS   BASIS     P2S    ABASIS      S 
                                         1400     1410     1200     1210     1080     1600     1650     1700   
                                           T        V       H0       H01     AOSYM     SMH    MOLCAS    OPER   

              2       6        5.57       500      610      700     1000      520     2100   
                                          VAR    BASINP    GEOM     BASIS   MCVARS     RHF  

 PROGRAMS   *        TOTAL        HF       INT      FILE
 CPU TIMES  *        10.94      2.47      8.36      0.00
 REAL TIME  *        12.86 SEC
 DISK USED  *         4.57 GB      
 SF USED    *         0.14 MB      
 GA USED    *         0.00 MB       (max)       0.00 MB       (current)
 **********************************************************************************************************************************


 PROGRAM * CCSD (Unrestricted open-shell coupled cluster)     Authors: C. Hampel, H.-J. Werner, 1991, M. Deegan, P.J. Knowles, 1992


 Convergence thresholds:  THRVAR = 1.00D-08  THRDEN = 1.00D-06

 CCSD(T)     terms to be evaluated (factor= 1.000)


 Number of core orbitals:           8 (   7   1 )
 Number of closed-shell orbitals:  13 (   9   4 )
 Number of external orbitals:     236 ( 146  90 )

 Memory could be reduced to 154.92 Mwords without degradation in triples

 Number of N-1 electron functions:              26
 Number of N-2 electron functions:             325
 Number of singly external CSFs:              3348
 Number of doubly external CSFs:           6917152
 Total number of CSFs:                     6920500

 Molecular orbitals read from record     2100.2  Type=RHF/CANONICAL (state 1.1)

 Integral transformation finished. Total CPU:   6.07 sec, npass=  1  Memory used:  40.37 MW

 Starting RMP2 calculation

 ITER.      SQ.NORM     CORR.ENERGY   TOTAL ENERGY   ENERGY CHANGE        DEN1      VAR(S)    VAR(P)  DIIS     TIME
   1      1.25954122    -0.86818571  -587.76992659    -0.86818571    -0.00319937  0.62D-11  0.14D-02  1  1     7.01
   2      1.26275051    -0.87162602  -587.77336690    -0.00344031    -0.00000469  0.13D-12  0.30D-05  2  2     7.73
   3      1.26285447    -0.87168479  -587.77342567    -0.00005876    -0.00000002  0.31D-14  0.17D-07  3  3     8.53
   4      1.26285707    -0.87168525  -587.77342613    -0.00000046    -0.00000000  0.85D-16  0.20D-09  4  4     9.42

 Norm of t1 vector:      0.00001722      S-energy:    -0.00000000      T1 diagnostic:  0.00000239
 Norm of t2 vector:      0.51269588      P-energy:    -0.87168525
                                         Alpha-Beta:  -0.65301206
                                         Alpha-Alpha: -0.10933659
                                         Beta-Beta:   -0.10933659

 Spin contamination <S**2-Sz**2-Sz>     0.00000000
  Reference energy                   -586.901740881831
  RHF-RMP2 correlation energy          -0.871685249604
 !RHF-RMP2 energy                    -587.773426131434

 Starting UCCSD calculation

 ITER.      SQ.NORM     CORR.ENERGY   TOTAL ENERGY   ENERGY CHANGE        DEN1      VAR(S)    VAR(P)  DIIS     TIME
   1      1.25663481    -0.85654440  -587.75828528    -0.85654440    -0.02650630  0.64D-02  0.54D-02  1  1    18.32
   2      1.28130592    -0.88047761  -587.78221849    -0.02393321    -0.00259663  0.17D-03  0.99D-03  2  2    27.23
   3      1.29176846    -0.88459305  -587.78633393    -0.00411544    -0.00033738  0.25D-03  0.54D-04  3  3    36.19
   4      1.29643705    -0.88614859  -587.78788947    -0.00155554    -0.00006160  0.33D-04  0.16D-04  4  4    45.96
   5      1.29873766    -0.88646276  -587.78820364    -0.00031417    -0.00001460  0.16D-04  0.18D-05  5  5    56.74
   6      1.29988092    -0.88657249  -587.78831337    -0.00010973    -0.00000316  0.28D-05  0.71D-06  6  6    67.43
   7      1.30043265    -0.88661720  -587.78835808    -0.00004471    -0.00000079  0.93D-06  0.18D-06  6  1    78.21
   8      1.30057873    -0.88662238  -587.78836326    -0.00000518    -0.00000023  0.27D-06  0.63D-07  6  2    89.23
   9      1.30065587    -0.88662094  -587.78836182     0.00000144    -0.00000008  0.11D-06  0.21D-07  6  3    99.87
  10      1.30070066    -0.88662586  -587.78836674    -0.00000492    -0.00000003  0.39D-07  0.63D-08  6  4   110.52
  11      1.30071357    -0.88662457  -587.78836545     0.00000129    -0.00000001  0.11D-07  0.23D-08  6  5   121.14
  12      1.30073508    -0.88662560  -587.78836648    -0.00000103    -0.00000000  0.28D-08  0.56D-09  6  2   131.23
  13      1.30074006    -0.88662527  -587.78836616     0.00000032    -0.00000000  0.41D-09  0.15D-09  6  6   141.31

 Norm of t1 vector:      0.13307173      S-energy:     0.00000030      T1 diagnostic:  0.01845373
                                                                       D1 diagnostic:  0.06194748
 Norm of t2 vector:      0.53200749      P-energy:    -0.88662557
                                         Alpha-Beta:  -0.69281318
                                         Alpha-Alpha: -0.09690620
                                         Beta-Beta:   -0.09690620

 Spin contamination <S**2-Sz**2-Sz>     0.00000000

 Memory could be reduced to 163.23 Mwords without degradation in triples
 

 RESULTS
 =======

  Reference energy                   -586.901740881831
  UCCSD singles energy                  0.000000295267
  UCCSD pair energy                    -0.886625569574
  UCCSD correlation energy             -0.886625274307
  Triples (T) contribution             -0.042228903628
  Total correlation energy             -0.928854177936
 
  RHF-UCCSD energy                   -587.788366156138
  RHF-UCCSD[T] energy                -587.833160753623
  RHF-UCCSD-T energy                 -587.829645497249
 !RHF-UCCSD(T) energy                -587.830595059767

 Program statistics:

 Available memory in ccsd:               999998418
 Min. memory needed in ccsd:              19629821
 Max. memory used in ccsd:                28299406
 Max. memory used in cckext:              25004349 (13 integral passes)
 Max. memory used in cckint:              40374334 ( 1 integral passes)



 **********************************************************************************************************************************
 DATASETS  * FILE   NREC   LENGTH (MB)   RECORD NAMES
              1      18       21.34       500      610      700      900      950      970     1000      129      960     1100   
                                          VAR    BASINP    GEOM    SYMINP    ZMAT    AOBASIS   BASIS     P2S    ABASIS      S 
                                         1400     1410     1200     1210     1080     1600     1650     1700   
                                           T        V       H0       H01     AOSYM     SMH    MOLCAS    OPER   

              2       6        5.57       500      610      700     1000      520     2100   
                                          VAR    BASINP    GEOM     BASIS   MCVARS     RHF  

 PROGRAMS   *        TOTAL  UCCSD(T)        HF       INT      FILE
 CPU TIMES  *       313.73    302.79      2.47      8.36      0.00
 REAL TIME  *       333.28 SEC
 DISK USED  *        11.55 GB      
 SF USED    *         2.83 GB      
 GA USED    *         0.00 MB       (max)       0.00 MB       (current)
 **********************************************************************************************************************************
 SETTING EHF(1)         =      -586.90174088  AU                              
 SETTING ECOR_CCSDT(1)  =        -0.92885418  AU                              
 SETTING ECOR_MP2(1)    =        -0.87168525  AU                              
 SETTING BASIS          =    AUG-CC-PVQZ


 Recomputing integrals since basis changed


 Using spherical harmonics

 Library entry C      S aug-cc-pVQZ          selected for orbital group  1
 Library entry C      P aug-cc-pVQZ          selected for orbital group  1
 Library entry C      D aug-cc-pVQZ          selected for orbital group  1
 Library entry C      F aug-cc-pVQZ          selected for orbital group  1
 Library entry C      G aug-cc-pVQZ          selected for orbital group  1
 Library entry H      S aug-cc-pVQZ          selected for orbital group  2
 Library entry H      P aug-cc-pVQZ          selected for orbital group  2
 Library entry H      D aug-cc-pVQZ          selected for orbital group  2
 Library entry H      F aug-cc-pVQZ          selected for orbital group  2
 Library entry O      S aug-cc-pVQZ          selected for orbital group  3
 Library entry O      P aug-cc-pVQZ          selected for orbital group  3
 Library entry O      D aug-cc-pVQZ          selected for orbital group  3
 Library entry O      F aug-cc-pVQZ          selected for orbital group  3
 Library entry O      G aug-cc-pVQZ          selected for orbital group  3
 Library entry S      S aug-cc-pVQZ          selected for orbital group  4
 Library entry S      P aug-cc-pVQZ          selected for orbital group  4
 Library entry S      D aug-cc-pVQZ          selected for orbital group  4
 Library entry S      F aug-cc-pVQZ          selected for orbital group  4
 Library entry S      G aug-cc-pVQZ          selected for orbital group  4


 PROGRAM * SEWARD (Integral evaluation for generally contracted gaussian basis sets)     Author: Roland Lindh, 1990

 Geometry written to block  1 of record 700


 Point group  Cs  



 ATOMIC COORDINATES

 NR  ATOM    CHARGE       X              Y              Z

   1  C       6.00    0.862453618   -1.527317094    0.000000000
   2  H       1.00    0.402191923   -3.546909355    0.000000000
   3  H       1.00    2.035784569   -1.124457909    1.680830696
   4  H       1.00    2.035784569   -1.124457909   -1.680830696
   5  O       8.00   -1.372043968   -0.168298064    0.000000000
   6  S      16.00   -0.678149007    3.114477468    0.000000000
   7  O       8.00   -3.286021703    4.376962674    0.000000000

 Bond lengths in Bohr (Angstrom)

 1-2  2.071374840  1-3  2.089065072  1-4  2.089065072  1-5  2.615322577  5-6  3.355310032
     ( 1.096124361)     ( 1.105485628)     ( 1.105485628)     ( 1.383969107)     ( 1.775553604)

 6-7  2.897390015
     ( 1.533232767)

 Bond angles

  1-5-6  109.37273835   2-1-3  108.22932001   2-1-4  108.22932001   2-1-5  108.46957696

  3-1-4  107.14041650   3-1-5  112.31273106   4-1-5  112.31273106   5-6-7  103.89669016

 NUCLEAR CHARGE:                   41
 NUMBER OF PRIMITIVE AOS:         662
 NUMBER OF SYMMETRY AOS:          535
 NUMBER OF CONTRACTIONS:          462   ( 279A'  + 183A"  )
 NUMBER OF CORE ORBITALS:           8   (   7A'  +   1A"  )
 NUMBER OF VALENCE ORBITALS:       19   (  14A'  +   5A"  )


 NUCLEAR REPULSION ENERGY  167.00691586


 Eigenvalues of metric

         1 0.126E-04 0.182E-04 0.551E-04 0.563E-04 0.648E-04 0.687E-04 0.805E-04 0.100E-03
         2 0.307E-04 0.886E-04 0.151E-03 0.356E-03 0.499E-03 0.652E-03 0.791E-03 0.940E-03


 Contracted 2-electron integrals neglected if value below      1.0D-12
 AO integral compression algorithm  1   Integral accuracy      1.0D-12

     12413.305 MB (compressed) written to integral file ( 47.8%)

     Node minimum: 1418.461 MB, node maximum: 1645.216 MB


 NUMBER OF SORTED TWO-ELECTRON INTEGRALS:  359617624.     BUFFER LENGTH:  32768
 NUMBER OF SEGMENTS:  12  SEGMENT LENGTH:   31997656      RECORD LENGTH: 524288

 Memory used in sort:      32.55 MW

 SORT1 READ  3247600262. AND WROTE   324570945. INTEGRALS IN    935 RECORDS. CPU TIME:    50.72 SEC, REAL TIME:    62.74 SEC
 SORT2 READ  2597377016. AND WROTE  2877437676. INTEGRALS IN  43288 RECORDS. CPU TIME:     6.60 SEC, REAL TIME:    90.75 SEC

 Node minimum:   359596666.  Node maximum:   359762756. integrals

 OPERATOR DM      FOR CENTER  0  COORDINATES:    0.000000    0.000000    0.000000


 **********************************************************************************************************************************
 DATASETS  * FILE   NREC   LENGTH (MB)   RECORD NAMES
              1      18       24.12       500      610      700      900      950      970     1001      129      960     1100   
                                          VAR    BASINP    GEOM    SYMINP    ZMAT    AOBASIS   BASIS     P2S    ABASIS      S 
                                         1400     1410     1200     1210     1080     1600     1650     1700   
                                           T        V       H0       H01     AOSYM     SMH    MOLCAS    OPER   

              2       7        6.37       500      610      700     1000      520     2100     1001   
                                          VAR    BASINP    GEOM     BASIS   MCVARS     RHF     BASIS   

 PROGRAMS   *        TOTAL       INT  UCCSD(T)        HF       INT      FILE
 CPU TIMES  *       400.53     86.80    302.79      2.47      8.36      0.00
 REAL TIME  *       517.53 SEC
 DISK USED  *        50.72 GB      
 SF USED    *         2.83 GB      
 GA USED    *         0.00 MB       (max)       0.00 MB       (current)
 **********************************************************************************************************************************


 PROGRAM * RHF-SCF (CLOSED SHELL)       Authors: W. Meyer, H.-J. Werner


 NUMBER OF ELECTRONS:      21+   21-
 CONVERGENCE THRESHOLDS:    1.00E-05 (Density)    1.00E-07 (Energy)
 MAX. NUMBER OF ITERATIONS:       60
 INTERPOLATION TYPE:            DIIS
 INTERPOLATION STEPS:              2 (START)      1 (STEP)
 LEVEL SHIFTS:                  0.00 (CLOSED)  0.00 (OPEN) 



 Molecular orbitals read from record     2100.2  Type=RHF/CANONICAL (state 1.1)
 
 Present basis size:     279 183
 Previous basis size:    162  95
 Previous occupation:     16   5
 Previous closed-shells:  16   5
 Previous core-orbitals:   7   1
 Present occupation:      16   5
 Present closed-shells:   16   5
 Present core-orbitals:    7   1
 Wavefunction symmetry:    1   Singlet 

 Orbital overlap <old|new>:  < 1.1| 1.1> = 1.000000   < 2.1| 2.1> = 0.999999   < 3.1| 3.1> = 0.999999   < 4.1| 4.1> = 0.999999
                             < 5.1| 5.1> = 1.000000   < 6.1| 6.1> = 0.999999   < 7.1| 7.1> = 0.999998   < 1.2| 1.2> = 0.999998
                             < 8.1| 8.1> = 0.999996   < 9.1| 9.1> = 0.999992   <10.1|10.1> = 0.999996   <11.1|11.1> = 0.999995
                             <12.1|12.1> = 0.999990   <13.1|13.1> = 0.999986   <14.1|14.1> = 0.999984   <15.1|15.1> = 0.999980
                             <16.1|16.1> = 0.999973   < 2.2| 2.2> = 0.999986   < 3.2| 3.2> = 0.999979   < 4.2| 4.2> = 0.999974
                             < 5.2| 5.2> = 0.999973

 Molecular orbital dump at record        2101.2

 ITERATION    DDIFF          GRAD             ENERGY        2-EL.EN.            DIPOLE MOMENTS         DIIS   ORB.
    1      0.000D+00      0.000D+00      -586.91673624    794.560543    2.33733   -3.14450    0.00000    0    start
    2      0.000D+00      0.154D-02      -586.92013543    794.717486    2.32932   -3.14575    0.00000    1    diag
    3      0.674D-02      0.975D-04      -586.92016662    794.619226    2.32454   -3.14712    0.00000    2    diag
    4      0.579D-03      0.180D-04      -586.92016855    794.661056    2.32573   -3.14673    0.00000    3    diag
    5      0.737D-04      0.823D-05      -586.92016900    794.646647    2.32480   -3.14731    0.00000    4    diag
    6      0.264D-04      0.302D-05      -586.92016910    794.646351    2.32505   -3.14708    0.00000    5    diag
    7      0.792D-05      0.137D-05      -586.92016912    794.646727    2.32502   -3.14722    0.00000    0    orth

 Final occupancy:  16   5

 !RHF STATE 1.1 Energy               -586.920169116443
 Nuclear energy                       167.00691586
 One-electron energy                -1151.25044827
 Two-electron energy                  397.32336329
 Virial quotient                       -1.00048106
 !RHF STATE 1.1 Dipole moment           2.32502215    -3.14722252     0.00000000
 Dipole moment /Debye                   5.90922979    -7.99891782     0.00000000

 Orbital energies:

         1.1          2.1          3.1          4.1          5.1          6.1          7.1          8.1          9.1         10.1
    -91.810662   -20.373681   -20.289554   -11.116371    -8.798671    -6.480942    -6.478845    -1.175873    -1.075983    -0.756673

        11.1         12.1         13.1         14.1         15.1         16.1         17.1         18.1
     -0.630365    -0.454158    -0.433937    -0.325803    -0.289230    -0.204065     0.115105     0.129853

         1.2          2.2          3.2          4.2          5.2          6.2          7.2
     -6.477805    -0.464580    -0.324461    -0.263165    -0.077037     0.132645     0.202553

 HOMO      5.2    -0.077037 =      -2.0963eV
 LUMO     17.1     0.115105 =       3.1322eV
 LUMO-HOMO         0.192142 =       5.2284eV


 **********************************************************************************************************************************
 DATASETS  * FILE   NREC   LENGTH (MB)   RECORD NAMES
              1      18       24.16       500      610      700      900      950      970     1001      129      960     1100   
                                          VAR    BASINP    GEOM    SYMINP    ZMAT    AOBASIS   BASIS     P2S    ABASIS      S 
                                         1400     1410     1200     1210     1080     1600     1650     1700   
                                           T        V       H0       H01     AOSYM     SMH    MOLCAS    OPER   

              2       8       11.10       500      610      700     1000      520     2100     1001     2101   
                                          VAR    BASINP    GEOM     BASIS   MCVARS     RHF     BASIS     RHF  

 PROGRAMS   *        TOTAL        HF       INT  UCCSD(T)        HF       INT      FILE
 CPU TIMES  *       417.96     17.43     86.80    302.79      2.47      8.36      0.00
 REAL TIME  *       537.15 SEC
 DISK USED  *        50.72 GB      
 SF USED    *         2.83 GB      
 GA USED    *         0.00 MB       (max)       0.00 MB       (current)
 **********************************************************************************************************************************


 PROGRAM * CCSD (Unrestricted open-shell coupled cluster)     Authors: C. Hampel, H.-J. Werner, 1991, M. Deegan, P.J. Knowles, 1992


 Convergence thresholds:  THRVAR = 1.00D-08  THRDEN = 1.00D-06

 CCSD(T)     terms to be evaluated (factor= 1.000)


 Number of core orbitals:           8 (   7   1 )
 Number of closed-shell orbitals:  13 (   9   4 )
 Number of external orbitals:     441 ( 263 178 )

 Number of N-1 electron functions:              26
 Number of N-2 electron functions:             325
 Number of singly external CSFs:              6158
 Number of doubly external CSFs:          24111869
 Total number of CSFs:                    24118027

 Molecular orbitals read from record     2101.2  Type=RHF/CANONICAL (state 1.1)

 Integral transformation finished. Total CPU:  62.51 sec, npass=  1  Memory used: 236.32 MW

 Starting RMP2 calculation

 ITER.      SQ.NORM     CORR.ENERGY   TOTAL ENERGY   ENERGY CHANGE        DEN1      VAR(S)    VAR(P)  DIIS     TIME
   1      1.26473642    -0.92438728  -587.84455640    -0.92438728    -0.00322943  0.13D-09  0.14D-02  1  1    68.29
   2      1.26796601    -0.92785704  -587.84802616    -0.00346976    -0.00000486  0.28D-11  0.31D-05  2  2    72.05
   3      1.26807362    -0.92791855  -587.84808766    -0.00006150    -0.00000002  0.84D-13  0.18D-07  3  3    76.24
   4      1.26807636    -0.92791904  -587.84808815    -0.00000049    -0.00000000  0.33D-14  0.23D-09  4  4    80.95

 Norm of t1 vector:      0.00008015      S-energy:    -0.00000001      T1 diagnostic:  0.00001111
 Norm of t2 vector:      0.51776090      P-energy:    -0.92791903
                                         Alpha-Beta:  -0.70228716
                                         Alpha-Alpha: -0.11281594
                                         Beta-Beta:   -0.11281594

 Spin contamination <S**2-Sz**2-Sz>     0.00000000
  Reference energy                   -586.920169116447
  RHF-RMP2 correlation energy          -0.927919036415
 !RHF-RMP2 energy                    -587.848088152862

 Starting UCCSD calculation

 ITER.      SQ.NORM     CORR.ENERGY   TOTAL ENERGY   ENERGY CHANGE        DEN1      VAR(S)    VAR(P)  DIIS     TIME
   1      1.25796151    -0.90460014  -587.82476926    -0.90460014    -0.02649518  0.62D-02  0.52D-02  1  1   145.57
   2      1.28140007    -0.92798059  -587.84814970    -0.02338045    -0.00265560  0.18D-03  0.98D-03  2  2   198.89
   3      1.29193549    -0.93234965  -587.85251877    -0.00436906    -0.00032972  0.23D-03  0.54D-04  3  3   252.67
   4      1.29627672    -0.93386535  -587.85403446    -0.00151569    -0.00006329  0.32D-04  0.16D-04  4  4   306.78
   5      1.29861003    -0.93420363  -587.85437275    -0.00033829    -0.00001430  0.15D-04  0.18D-05  5  5   361.25
   6      1.29970021    -0.93431575  -587.85448486    -0.00011211    -0.00000301  0.26D-05  0.63D-06  6  6   416.80
   7      1.30020808    -0.93435616  -587.85452528    -0.00004042    -0.00000073  0.77D-06  0.17D-06  6  2   473.19
   8      1.30035018    -0.93436209  -587.85453121    -0.00000593    -0.00000019  0.21D-06  0.53D-07  6  1   527.79
   9      1.30041394    -0.93436249  -587.85453160    -0.00000039    -0.00000006  0.79D-07  0.17D-07  6  3   582.44
  10      1.30044448    -0.93436632  -587.85453543    -0.00000383    -0.00000002  0.33D-07  0.53D-08  6  4   637.04
  11      1.30044937    -0.93436431  -587.85453343     0.00000200    -0.00000001  0.16D-07  0.33D-08  6  3   691.72
  12      1.30046452    -0.93436448  -587.85453360    -0.00000016    -0.00000000  0.26D-08  0.54D-09  6  5   746.36

 Norm of t1 vector:      0.12841511      S-energy:    -0.00000073      T1 diagnostic:  0.01780797
                                                                       D1 diagnostic:  0.06037548
 Norm of t2 vector:      0.53289219      P-energy:    -0.93436375
                                         Alpha-Beta:  -0.73451421
                                         Alpha-Alpha: -0.09992477
                                         Beta-Beta:   -0.09992477

 Spin contamination <S**2-Sz**2-Sz>     0.00000000
 

 RESULTS
 =======

  Reference energy                   -586.920169116447
  UCCSD singles energy                 -0.000000733319
  UCCSD pair energy                    -0.934363745781
  UCCSD correlation energy             -0.934364479100
  Triples (T) contribution             -0.045620128829
  Total correlation energy             -0.979984607929
 
  RHF-UCCSD energy                   -587.854533595547
  RHF-UCCSD[T] energy                -587.902640778339
  RHF-UCCSD-T energy                 -587.899275713376
 !RHF-UCCSD(T) energy                -587.900153724376

 Program statistics:

 Available memory in ccsd:               999998418
 Min. memory needed in ccsd:              67828437
 Max. memory used in ccsd:                98160994
 Max. memory used in cckext:              86231458 (12 integral passes)
 Max. memory used in cckint:             236324630 ( 1 integral passes)



 **********************************************************************************************************************************
 DATASETS  * FILE   NREC   LENGTH (MB)   RECORD NAMES
              1      18       24.16       500      610      700      900      950      970     1001      129      960     1100   
                                          VAR    BASINP    GEOM    SYMINP    ZMAT    AOBASIS   BASIS     P2S    ABASIS      S 
                                         1400     1410     1200     1210     1080     1600     1650     1700   
                                           T        V       H0       H01     AOSYM     SMH    MOLCAS    OPER   

              2       8       11.10       500      610      700     1000      520     2100     1001     2101   
                                          VAR    BASINP    GEOM     BASIS   MCVARS     RHF     BASIS     RHF  

 PROGRAMS   *        TOTAL  UCCSD(T)        HF       INT  UCCSD(T)        HF       INT      FILE
 CPU TIMES  *      2404.50   1986.54     17.43     86.80    302.79      2.47      8.36      0.00
 REAL TIME  *      2605.45 SEC
 DISK USED  *        68.17 GB      
 SF USED    *        15.98 GB      
 GA USED    *         0.00 MB       (max)       0.00 MB       (current)
 **********************************************************************************************************************************
 SETTING EHF(2)         =      -586.92016912  AU                              
 SETTING ECOR_CCSDT(2)  =        -0.97998461  AU                              
 SETTING ECOR_MP2(2)    =        -0.92791904  AU                              

 
 Extrapolating energy using  ECORR and basissets AVTZ AVQZ

 *** Long output written to logfile /home/vallet/John-methylsulfonyl/Units/CH3SO2-m1/geom-trans-CH3OSO-m1/optg-freq-pbe0/CCSD-T/trans-CH3OSO-m1.CCSD-T-CBS.log ***


 Extrapolating reference energy using E(n)=ECBS+A*(l+1)*exp(-9*sqrt(l))

 E(CBS)=  -586.92249564  A= 0.305519D+05

 Extrapolating correlation energy using function (n+ 0.5)^{-X} with X= 4.0
 
 L=3  E=    -0.92885418  EFIT=    -0.92885418
 L=4  E=    -0.97998461  EFIT=    -0.97998461

 E(CBS)=    -1.00949522  Coefficients:   12.1012

 BASIS           EREF            ECORR           ETOT
 AVTZ       -586.90174088     -0.92885418   -587.83059506
 AVQZ       -586.92016912     -0.97998461   -587.90015372
 CBS        -586.92249564     -1.00949522   -587.93199087
 


 **********************************************************************************************************************************
 DATASETS  * FILE   NREC   LENGTH (MB)   RECORD NAMES
              1      18       24.16       500      610      700      900      950      970     1001      129      960     1100   
                                          VAR    BASINP    GEOM    SYMINP    ZMAT    AOBASIS   BASIS     P2S    ABASIS      S 
                                         1400     1410     1200     1210     1080     1600     1650     1700   
                                           T        V       H0       H01     AOSYM     SMH    MOLCAS    OPER   

              2       8       11.10       500      610      700     1000      520     2100     1001     2101   
                                          VAR    BASINP    GEOM     BASIS   MCVARS     RHF     BASIS     RHF  

 PROGRAMS   *        TOTAL  EXTRAPOL  UCCSD(T)        HF       INT  UCCSD(T)        HF       INT      FILE
 CPU TIMES  *      2404.51      0.00   1986.54     17.43     86.80    302.79      2.47      8.36      0.00
 REAL TIME  *      2605.45 SEC
 DISK USED  *        68.17 GB      
 SF USED    *        15.98 GB      
 GA USED    *         0.00 MB       (max)       0.00 MB       (current)
 **********************************************************************************************************************************

 
 Extrapolating energy using  ECORR and basissets AVTZ AVQZ

 Extrapolating reference energy using E(n)=ECBS+A*(l+1)*exp(-9*sqrt(l))

 E(CBS)=  -586.92249564  A= 0.305519D+05

 Extrapolating correlation energy using function (n+ 0.5)^{-X} with X= 4.0
 
 L=3  E=    -0.87168525  EFIT=    -0.87168525
 L=4  E=    -0.92791904  EFIT=    -0.92791904

 E(CBS)=    -0.96037512  Coefficients:   13.3090

 BASIS           EREF            ECORR           ETOT
 AVTZ       -586.90174088     -0.87168525   -587.77342613
 AVQZ       -586.92016912     -0.92791904   -587.84808815
 CBS        -586.92249564     -0.96037512   -587.88287077
 


 **********************************************************************************************************************************
 DATASETS  * FILE   NREC   LENGTH (MB)   RECORD NAMES
              1      18       24.16       500      610      700      900      950      970     1001      129      960     1100   
                                          VAR    BASINP    GEOM    SYMINP    ZMAT    AOBASIS   BASIS     P2S    ABASIS      S 
                                         1400     1410     1200     1210     1080     1600     1650     1700   
                                           T        V       H0       H01     AOSYM     SMH    MOLCAS    OPER   

              2       8       11.10       500      610      700     1000      520     2100     1001     2101   
                                          VAR    BASINP    GEOM     BASIS   MCVARS     RHF     BASIS     RHF  

 PROGRAMS   *        TOTAL  EXTRAPOLEXTRAPOLAT  UCCSD(T)        HF       INT  UCCSD(T)        HF       INT      FILE
 CPU TIMES  *      2404.51      0.00      0.00   1986.54     17.43     86.80    302.79      2.47      8.36      0.00
 REAL TIME  *      2605.46 SEC
 DISK USED  *        68.17 GB      
 SF USED    *        15.98 GB      
 GA USED    *         0.00 MB       (max)       0.00 MB       (current)
 **********************************************************************************************************************************

 UCCSD(T)/aug-cc-pVTZ:aug-cc-pVQZ energy=   -587.882870766697

        UCCSD(T)        HF-SCF          UCCSD(T)        HF-SCF  
   -587.90015372   -586.92016912   -587.83059506   -586.90174088
 **********************************************************************************************************************************
 Molpro calculation terminated
 Variable memory released
