4
Energy = -39.79942409830
C    -0.0000000    0.0000000    0.0000000 
H    -0.5396777    0.9347491    0.0000000 
H    -0.5396777   -0.9347491    0.0000000 
H     1.0793553    0.0000000    0.0000000 
