
   OpenMP run-time library returned nthreads =  8
 operating system is UNIX !

 force (u-4-4.local) : TURBOMOLE V7.2 ( 21471 ) 11 Oct 2017 at 17:04:51
 Copyright (C) 2017 TURBOMOLE GmbH, Karlsruhe


    2018-02-06 18:15:28.697 



                             T U R B O M O L E   

                          a o f o r c e - program

                        using direct algorithms for

                       SCF level calculations of
                         * harmonic force constants
                         * hyperpolarizabilities
                         * IR and RAMAN intensities
                         * VCD intensities

                       DFT level calculations of
                         * harmonic force constants
                         * IR intensities
                                                   
       Stephan Boecker, Peter Deglmann, Filipp Furche and Marco Haeser
                          Quantum Chemistry Group
                          Universitaet  Karlsruhe
                                   Germany

 
 

          OpenMP Shared-Memory Parallelization:  8 CPUs.

            By: Erik P. Almaraz and Filipp Furche
            Copyright 2009-2011 by UCI and TURBOMOLE GmbH.

 
 
     References :
 
       RI-J implementation:
         Peter Deglmann, Klaus May, Filipp Furche, Reinhart Ahlrichs
                 Chem. Phys. Lett. 384:103 (2004)
 
       Efficiency, technical details:
         Peter Deglmann, Filipp Furche, Reinhart Ahlrichs
                 Chem. Phys. Lett. 362:511 (2002)
 
       Search of lowest eigenvalues by iterative diagonalization:
         Peter Deglmann, Filipp Furche
                 J. Chem. Phys. 117:9535 (2002)
 
       Vibrational circular dichroism implementation:
        Kevin Reiter, Michael Kuehn, Florian Weigend
                 J. Chem. Phys. 146:054102 (2017)  
 
 


              +--------------------------------------------------+
              | Atomic coordinate, charge and isotop information |
              +--------------------------------------------------+

                    atomic coordinates            atom    charge  isotop
         -3.09917384    2.10914743    2.44033343    c      6.000     0
         -2.08067081   -1.17067812    2.42697432    s     16.000     0
         -2.44581390   -1.87603193   -0.35678140    o      8.000     0
          2.10595843   -1.32887937   -1.69107951    pu    94.000     0
          6.02296628   -0.90168204   -3.93667601    o      8.000     0
          0.76647446   -0.88917796    2.86915064    o      8.000     0
          2.71067201   -4.57382224   -1.28858935    o      8.000     0
          1.53214426    1.92993623   -2.12884093    o      8.000     0
         -2.76713488    2.88257622    4.32148642    h      1.000     0
         -1.96567656    3.07941997    1.01813963    h      1.000     0
         -5.10487938    2.16777183    1.97050390    h      1.000     0
          4.32513393   -1.42858003   -5.64462114    o      8.000     0
 
       center of nuclear mass  :    1.56699325   -1.16787840   -1.20358098
       center of nuclear charge:    1.43430684   -1.10644145   -1.09023125

              +--------------------------------------------------+
              |               basis set information              |
              +--------------------------------------------------+

              we will work with the 1s 3p 5d 7f 9g ... basis set
              ...i.e. with spherical basis functions...

   type   atoms  prim   cont   basis
   ---------------------------------------------------------------------------
    c        1     66     46   aug-cc-pVTZ   [5s4p3d2f|19s6p3d2f]
    s        1    122     50   aug-cc-pVTZ   [6s5p3d2f|42s17p3d2f]
    o        6     66     46   aug-cc-pVTZ   [5s4p3d2f|19s6p3d2f]
    pu       1    213    117   ecp-60-SVP(6g)   [10s9p5d4f3g|14s13p10d8f6g]
    h        3     25     23   aug-cc-pVTZ   [4s3p2d|6s3p2d]
   ---------------------------------------------------------------------------
   total:   12    872    558
   ---------------------------------------------------------------------------

   total number of primitive shells          :  186
   total number of contracted shells         :  172
   total number of cartesian basis functions :  671
   total number of SCF-basis functions       :  558

 number of unique ecp types :                     1
 
             FOUND RI-J FLAG !
 

 NOTE: THIS IS A PRELIMINARY IMPLEMENTATION. THE RI APPROXIMATION IS
       PRESENTLY USED FOR CPKS CONTRIBUTIONS TO THE HESSIAN ONLY! SEE
       MANUAL FOR FURTHER DETAILS.

  
 AUXILIARY BASIS SET information:

              we will work with the 1s 3p 5d 7f 9g ... basis set
              ...i.e. with spherical basis functions...

   type   atoms  prim   cont   basis
   ---------------------------------------------------------------------------
    c        1     70     49   aug-cc-pVTZ   [6s4p3d1f1g|12s5p4d2f1g]
    s        1     77     51   aug-cc-pVTZ   [8s4p3d1f1g|14s5p5d2f1g]
    o        6     70     49   aug-cc-pVTZ   [6s4p3d1f1g|12s5p4d2f1g]
    pu       1    268    205   def-TZVPP   [14s7p7d6f5g2h2i|18s7p7d6f6g3h5i]
    h        3     16     11   aug-cc-pVTZ   [3s1p1d|5s2p1d]
   ---------------------------------------------------------------------------
   total:   12    883    632
   ---------------------------------------------------------------------------

   total number of primitive shells          :  135
   total number of contracted shells         :  180
   total number of cartesian basis functions :  836
   total number of SCF-basis functions       :  632


 symmetry group of the molecule :   c1 

 the group has the following generators :
   c1(z)

    1 symmetry operations found

 there are 1 real representations :   a   

 maximum number of shells which are related by symmetry :  1


 determining totally symmetric integral contributions 
    - equivalent to irreducible tensor elements - 
 which can be formed within each triple of representations :

             representation triple      contributions

              a     a     a               1
       UHF mode switched on !

    mo occupation :
   irrep   mo's   occupied
    a      558       56
 
 number of basis functions   :                    558
 number of occupied orbitals :                     56
 
 ALPHA-Occupation:                    56
 BETA-Occupation :                    52
  MOs are in ASCII format !


 reading orbital data $uhfmo_alpha  from file alpha
 orbital characterization : scfconv=7

 reading orbital data $uhfmo_beta  from file beta
 orbital characterization : scfconv=7
 time elapsed for calculating density matrices :   0.336 sec

 number of non-frozen orbitals          :   558
 number of non-frozen occupied orbitals :    56

 number of non-frozen orbitals          :   558
 number of non-frozen occupied orbitals :    52
 Blocking parameters 
 shells:
    index      start shell   last shell  start bf    last bf    #bf 
       1             1         172             1        671    671
  
           ----------------------
               RI - INFORMATION
           ----------------------

 biggest AO integral is expected to be    25.399937282

 Threshold for integral neglect (rithr2):   0.37E-11
 Threshold for integral neglect (rithr1):   0.37E-11

 Contributions to RI integral batches: 
  neglected integral batches:                  1451
  direct contribution:                         7338
  memory contribution:                  6089
 Core memory available (ricore):               500 MiB
 Core memory needed for (P|Q) and Cholesky:      4 MiB
 Core memory used for integrals:               346 MiB
 
 ****************************************
 Memory allocated for RIDFT: 349 MiB
 ****************************************
 
  
           ------------------
           density functional
           ------------------
 PBE0 hybrid functional
 exchange:    3/4 (LDA+PBE) + 1/4 HF
 correlation: LDA (PW) + PBE

 iterations will be done with small grid
  
 spherical integration : Lebedev's spherical grid
 spherical gridsize    :                     4
    i.e. gridpoints    :                   434
 value for diffuse not defined
 radial integration    : Chebyshev 2nd kind (scaling 3)
 radial gridsize       :                     6
 integration cells     :                    12
 partition function    : becke
 partition sharpness   :                     3
  
 
 Derivatives of quadrature weights will be included
 
          Overall gridpoints after grid construction =        138623
 Ordering of quadrature gridpoints disabled.
 
 
 
 
 OCCUPIED-OCCUPIED TENSOR SPACES :

          IRREP   tensor space dimension   number of roots

           a              5840                  30
 
 OCCUPIED-VIRTUAL TENSOR SPACES :

          IRREP   tensor space dimension   number of roots

           a             54424                  30
 
 
 
 
 CONSTRUCTING integral bounds

 setting up bound for integral derivative estimation

 increment for numerical differentiation : 0.00050000
 
 machine precision:   2.220446049250313E-016

 integral neglect threshold       :  0.10E-09
 integral storage threshold THIZE :  0.10E-04
 integral storage threshold THIME :         5

 
 
 
 PREPARING NUMERICAL INTEGRATION
 
 Remaining core memory for DFT =                 15626 MB
 
 Memory needed per atom    =                 10568 KiB
 
     i. e.                    12 atoms per loop

 Calculating ground state density on molecular grid

 Integral of ground state total density: Na =   107.9999823674244    

 Integral of ground state spin density:  Nb =   4.000000109633769    


 
 
 CONSTRUCTING first deriv. of <mu|x,y,z|nu> -> Dip. deriv.
  dipole integral derivatives will be neglected if
  expon. factor <0.745156E-12
      ...terminated. cpu:       0.88       wall:       0.11
 
 
 
 
 CONSTRUCTING first deriv. of  <mu|nu>
                               <mu|h|nu>    -> RHS
              second deriv. of <mu|nu>      -> Hessian
                               <mu|h|nu>    -> Hessian
                               nucl. rep.   -> Hessian
     integrals are neglected if expon. factor <  7.451564828614008E-014
 
 CONSTRUCTING ECP contribution              -> RHS
 
                                            -> Hessian
      ...terminated. cpu:      41.35       wall:      36.88
 
 
 
 
 CONSTRUCTING second deriv. of 2e energy    -> Hessian
   treating Coulomb (and exchange) contribution
     integrals will be neglected if total contribution <  7.451564828614008E-010
      ...terminated. cpu:    6696.92       wall:     836.96
   treating exchange-correlation contribution
      ...terminated. cpu:    3094.19       wall:     388.19
 
 
 
 
 CONSTRUCTING S(i,j)xi
      ...terminated. cpu:       0.14       wall:       0.14
 
 
 
 
 CONSTRUCTING <i|x,y,z|j>*S(i,j)xi          -> Dip. deriv.
      ...terminated. cpu:       1.55       wall:       0.90
 
 
 
 
 CONSTRUCTING epsilon(i)*S(i,j)xi*S(i,j)chi -> Hessian
      ...terminated. cpu:       0.01       wall:       0.00
 
 
 
 
 CONSTRUCTING G(a,i)[S(k,l)xi]              -> RHS
              G(i,j)[S(k,l)xi]*S(i,j)chi    -> Hessian
 
         Maximum core memory set to                  16000 MB
         This corresponds to                  2306 vectors in CAO basis
      ...terminated. cpu:   10866.44       wall:    1358.16
 
 
 
 
 CONSTRUCTING G(mu,nu)[D(kap,lam)]xi
 
          Maximum core memory set to                  16000 MB
          Atoms treated simultaneously :                    12
      ...terminated. cpu:    7625.52       wall:     953.20
 
 
 
 
 CONSTRUCTING F(a,i)xi                      -> RHS
              F(i,j)xi*S(i,j)chi            -> Hessian
 
        Maximum core memory set to                 16000 MB
        This corresponds to                  4150 vectors in CAO basis
      ...terminated. cpu:      16.24       wall:       2.87
 
 
 
 
 CONSTRUCTING epsilon(i)*S(a,i)xi           -> RHS
      ...terminated. cpu:       4.06       wall:       1.63
 
 
 
 
 SOLVING CPHF equations
 
 Residuum convergence criterium   :  1.000000000000000E-005
 
 Maximum number of Davidson iterations set to                    25
  Switching to small grid
        preparing numerical integration ....
          Overall gridpoints after grid construction =         42047

 Calculating ground state density on molecular grid

 Integral of ground state total density: Na =   108.0002819867099    

 Integral of ground state spin density:  Nb =   4.000042792832628    




                       Nonorthonormal Krylov Space Iteration


 total number of roots to be determined:  30


 maximum core memory set to 16000 MB,
 corresponding to     2303 vectors in CAO basis


 maximum number of simultaneously treated vectors (including degeneracy):       30


 Iteration IRREP Converged      Max. Euclidean
                 roots          residual norm

    1       a        0        1.646532985596009D-01
 
    2       a        0        3.423698966539307D-02
 
    3       a        0        1.243453760226343D-02
 
    4       a        0        1.058312851165633D-02
 
    5       a        0        2.731240314725842D-03
 
    6       a        0        7.697852296137523D-04
 
    7       a        4        1.448062743106703D-04
 
    8       a       28        2.779067000895498D-05
 
    9       a       30        9.514717880660388D-06
 

 converged!

  Switching to fine grid
        preparing numerical integration ....
          Overall gridpoints after grid construction =        138623

 Calculating ground state density on molecular grid

 Integral of ground state total density: Na =   107.9999823674250    

 Integral of ground state spin density:  Nb =   4.000000109633768    



 Iteration IRREP Converged      Max. Euclidean
                 roots          residual norm

   10       a        0        1.494321947743771D-04
 

 NOTE: Residual norms are larger than 1.00D-05 due to mgrid option!

      ...terminated. cpu:   60413.97       wall:    7564.66
 
 
 
 
 CONSTRUCTING <a|x,y,z|i>*U(a,i)xi          -> Dip. deriv.
      ...terminated. cpu:       0.98       wall:       0.16
 
 
 
 
 CONSTRUCTING RHS(a,i)xi*U(a,i)chi          -> Hessian
      ...terminated. cpu:       0.15       wall:       0.02
 
 
 
 

            -----------------------
            permanent dipole moment
            -----------------------

                                   x                y                z
    electronic part       : -115.4184227712   106.7110040591    82.3297329087
     nuclear   part       :  113.1717361206  -105.0429596419   -80.6038491242
     total                :   -2.2466866507     1.6680444171     1.7258837845

 with reference to the point :   0.0000000        0.0000000        0.0000000
 (given in atomic units)
    | dipole |       :    8.3564380248  debye

   ***  dipole moment & cartesian dipole gradients written onto
        $dipole, $dipgrad,  file=<dipgrad>  ***

             -----------------------------------
             rotational and vibrational analysis
             -----------------------------------


            ==============================================================
            ATOMIC WEIGHTS (average over the natural occurance of isotops)
            ==============================================================
            ('*' denotes special isotop !)
              1     c                12.01115
              2     s                32.06400
              3     o                15.99940
              4     pu              244.00000
              5     o                15.99940
              6     o                15.99940
              7     o                15.99940
              8     o                15.99940
              9     h                 1.00797
             10     h                 1.00797
             11     h                 1.00797
             12     o                15.99940

          -------------------------------------------------
          CARTESIAN FORCE CONSTANT MATRIX (hartree/bohr**2)
         (translational & rotational space projected out)
          -------------------------------------------------

   ATOM              1 c                           2 s 
                  dx        dy        dz        dx        dy        dz
   1 c     dx  0.5485004
           dy  0.0624365 0.3517397
           dz -0.0022601 0.0027422 0.5666808
   2 s     dx -0.0422362 0.0202671-0.0009991 0.4975954
           dy -0.0121361-0.1369812 0.0425585 0.0396246 0.2933694
           dz  0.0088837 0.0103794-0.0491007 0.0142696 0.0312036 0.5005902
   3 o     dx  0.0040122 0.0010553 0.0063952-0.0709284-0.0077119-0.0100115
           dy  0.0026436-0.0034944-0.0394898-0.0153529-0.0717157-0.0492861
           dz -0.0046215-0.0109875-0.0103475-0.0240233-0.0738511-0.3628253
   4 pu    dx -0.0009877-0.0019472-0.0012405-0.0101873 0.0051454 0.0291524
           dy  0.0009201-0.0006152-0.0015298-0.0010054 0.0120529 0.0035172
           dz -0.0020799 0.0012699-0.0011107 0.0310403-0.0025049-0.0094056
   5 o     dx -0.0001235 0.0004365 0.0000683 0.0010774-0.0008057-0.0016691
           dy -0.0000434 0.0000588 0.0000260 0.0002216-0.0002384-0.0001415
           dz  0.0000328-0.0001229-0.0000470-0.0001711 0.0004415 0.0011784
   6 o     dx -0.0240006 0.0030464-0.0061839-0.3695110-0.0297484-0.0349232
           dy  0.0334558 0.0091538-0.0037801-0.0487920-0.0606167 0.0015992
           dz -0.0049389-0.0004702 0.0049228-0.0127632-0.0004098-0.0751977
   7 o     dx  0.0002277 0.0003882 0.0004943-0.0001439-0.0011370-0.0030043
           dy  0.0003772-0.0004468 0.0000129-0.0030950-0.0015500 0.0024937
           dz  0.0004929 0.0000083 0.0003236-0.0024320 0.0006009-0.0012959
   8 o     dx  0.0001064 0.0008460 0.0001808-0.0026940 0.0019755-0.0015471
           dy -0.0002140 0.0016102-0.0001212 0.0063406-0.0070169-0.0052312
           dz  0.0004987-0.0011708 0.0004119-0.0028394-0.0009687-0.0004595
   9 h     dx -0.0514599-0.0179621-0.0401421-0.0006824 0.0006433 0.0071655
           dy -0.0183511-0.0796670-0.0959878-0.0061318-0.0022278-0.0221396
           dz -0.0408117-0.0924754-0.2745253-0.0007818 0.0014133-0.0022970
  10 h     dx -0.1284577-0.0731040 0.1046880 0.0046896 0.0081817-0.0064512
           dy -0.0770981-0.1003427 0.0933111-0.0131939-0.0304847 0.0226740
           dz  0.1059022 0.0893440-0.1780236 0.0000489 0.0014150 0.0002722
  11 h     dx -0.3055140 0.0044287-0.0610069-0.0082663-0.0039728-0.0018304
           dy  0.0080229-0.0410172 0.0022686 0.0210938 0.0054278 0.0048508
           dz -0.0613036 0.0019103-0.0591956 0.0005437-0.0004800-0.0023485
  12 o     dx -0.0000671 0.0001086 0.0000060 0.0012871-0.0000587-0.0000343
           dy -0.0000133 0.0000020-0.0000107 0.0000233-0.0000188 0.0000805
           dz  0.0002052-0.0004272 0.0000112-0.0018926 0.0005817 0.0008893

   ATOM              3 o                           4 pu
                  dx        dy        dz        dx        dy        dz
   3 o     dx  0.0898733
           dy  0.0164346 0.0766438
           dz  0.0470862 0.0983146 0.3737881
   4 pu    dx -0.0244213-0.0019854-0.0061918 0.2259498
           dy -0.0015530-0.0173290-0.0029203-0.1381514 0.8899191
           dz -0.0017731 0.0016088-0.0080043-0.0600065-0.1002534 0.2127613
   5 o     dx -0.0031100 0.0001310 0.0035643-0.0451644-0.0048168 0.0108393
           dy -0.0001866 0.0002138 0.0004267-0.0020733-0.0114323 0.0008874
           dz  0.0028783 0.0000670-0.0016412 0.0316828 0.0047585-0.0194984
   6 o     dx  0.0029995-0.0011027-0.0214677-0.0088711 0.0035779-0.0070269
           dy -0.0071198 0.0092757-0.0078430 0.0004953-0.0165387-0.0023759
           dz -0.0471271-0.0096591 0.0041338-0.0015331-0.0013542-0.0245562
   7 o     dx -0.0017039 0.0041989 0.0021914-0.0597423 0.0727053-0.0012383
           dy  0.0079999 0.0046664-0.0050311 0.0728497-0.4258726 0.0475030
           dz -0.0004647-0.0016737 0.0019944-0.0012497 0.0475687-0.0515762
   8 o     dx  0.0022186-0.0060282 0.0010131-0.0571978 0.0631340-0.0005369
           dy -0.0099438 0.0027736 0.0085420 0.0656091-0.4143276 0.0511323
           dz  0.0010753 0.0011035 0.0016931-0.0013303 0.0537319-0.0532999
   9 h     dx  0.0006992 0.0032266 0.0012606 0.0003546-0.0002216 0.0002277
           dy  0.0023787-0.0090869-0.0036183-0.0009159-0.0011184 0.0002582
           dz -0.0001498-0.0009890 0.0016902-0.0006362 0.0006309-0.0000877
  10 h     dx -0.0008992-0.0018511-0.0000085-0.0002854 0.0033918-0.0001949
           dy  0.0005443 0.0072163-0.0029705 0.0008992-0.0023796 0.0000003
           dz -0.0001760-0.0000389 0.0002080 0.0005716-0.0024798 0.0007559
  11 h     dx  0.0020244-0.0002076 0.0014140 0.0001126-0.0005129-0.0007699
           dy -0.0020112 0.0007727-0.0000384 0.0001079-0.0008737 0.0010631
           dz -0.0001413-0.0001766-0.0004030 0.0001069 0.0006275-0.0000856
  12 o     dx -0.0007643-0.0001067-0.0002169-0.0195597 0.0025320 0.0315189
           dy  0.0001135 0.0000637-0.0000230-0.0000333-0.0114848 0.0014114
           dz  0.0024085 0.0002193-0.0002862 0.0106744-0.0022972-0.0458925

   ATOM              5 o                           6 o 
                  dx        dy        dz        dx        dy        dz
   5 o     dx  0.2776084
           dy  0.0740501 0.0355491
           dz  0.2040285 0.0685621 0.2595505
   6 o     dx -0.0003140-0.0001399-0.0002068 0.3976433
           dy  0.0003957 0.0000774-0.0002244 0.0204689 0.0502082
           dz  0.0023355 0.0003668-0.0007810 0.0615627 0.0120568 0.0925160
   7 o     dx  0.0054278-0.0050486 0.0010810 0.0000581 0.0010513 0.0017946
           dy -0.0102126-0.0003957 0.0022634 0.0048992 0.0025767-0.0088359
           dz  0.0002511 0.0003004-0.0009644 0.0021088-0.0045843 0.0022957
   8 o     dx -0.0005609 0.0053711 0.0005889 0.0046582-0.0013405-0.0014760
           dy  0.0101435 0.0046353-0.0025413-0.0083549 0.0044840 0.0086770
           dz -0.0020965-0.0013982-0.0001962 0.0018051 0.0052337-0.0024096
   9 h     dx -0.0000230-0.0000012-0.0000014-0.0003908-0.0004326-0.0007470
           dy  0.0000783 0.0000193-0.0000355-0.0000422 0.0015235 0.0020236
           dz  0.0001006 0.0000110-0.0000220 0.0012392 0.0007590 0.0012502
  10 h     dx  0.0001307 0.0000056-0.0000429 0.0000050-0.0021522 0.0006855
           dy -0.0000962-0.0000056 0.0000212 0.0005826 0.0070750-0.0029790
           dz -0.0001415-0.0000081 0.0000315-0.0007114-0.0007994-0.0005254
  11 h     dx -0.0001037-0.0000131 0.0000320-0.0006464 0.0037160-0.0006246
           dy  0.0000269 0.0000078 0.0000014 0.0066897-0.0074814 0.0005331
           dz  0.0000037-0.0000003-0.0000102 0.0001511-0.0000091 0.0014485
  12 o     dx -0.2348449-0.0721422-0.2399019-0.0016304 0.0002541 0.0028316
           dy -0.0693306-0.0284894-0.0731907 0.0001233 0.0002626 0.0000508
           dz -0.2172841-0.0690323-0.2376001 0.0036530-0.0000325-0.0030970

   ATOM              7 o                           8 o 
                  dx        dy        dz        dx        dy        dz
   7 o     dx  0.0414624
           dy -0.0707558 0.4045344
           dz  0.0015073-0.0483288 0.0342818
   8 o     dx  0.0143926 0.0011264-0.0005122 0.0407430
           dy -0.0001274 0.0123729 0.0007012-0.0633776 0.3924975
           dz -0.0001206-0.0005566 0.0144731 0.0010404-0.0516084 0.0368863
   9 h     dx -0.0000369 0.0000411-0.0000603-0.0003880 0.0001989 0.0000562
           dy  0.0002375 0.0000461 0.0000834-0.0005326 0.0007122 0.0000393
           dz  0.0001005-0.0002022 0.0000196 0.0005696-0.0004025-0.0000662
  10 h     dx  0.0000680-0.0006583 0.0001615-0.0000887-0.0024707-0.0000408
           dy -0.0000513 0.0004944-0.0001024-0.0011262 0.0009450 0.0005709
           dz -0.0000232 0.0005155-0.0001095-0.0004536 0.0019072-0.0010311
  11 h     dx -0.0000154 0.0002276 0.0001063-0.0001253 0.0002657 0.0003370
           dy -0.0001005-0.0000044-0.0002182-0.0002680 0.0007903 0.0003103
           dz -0.0000160-0.0000551 0.0000460 0.0002065-0.0005133-0.0004033
  12 o     dx  0.0000058-0.0027994 0.0000908-0.0010641 0.0019308 0.0016150
           dy -0.0013606 0.0035786 0.0056445 0.0002200 0.0005235-0.0052869
           dz -0.0027667 0.0102213 0.0005117 0.0009267-0.0105417 0.0044012

   ATOM              9 h                          10 h 
                  dx        dy        dz        dx        dy        dz
   9 h     dx  0.0511604
           dy  0.0188607 0.0826857
           dz  0.0451138 0.1023752 0.2941037
  10 h     dx  0.0032391 0.0041454-0.0055024 0.1342355
           dy  0.0083884 0.0069989-0.0096282 0.0787562 0.1094091
           dz  0.0140352 0.0139202-0.0152061-0.1132060-0.0980751 0.1868607
  11 h     dx -0.0024639 0.0002686 0.0007258-0.0126781 0.0024178-0.0058074
           dy -0.0127387 0.0001116-0.0014808-0.0142168 0.0010512-0.0057137
           dz -0.0269255 0.0031366-0.0047688 0.0200787-0.0029056 0.0066659
  12 o     dx -0.0000085 0.0000044 0.0000326 0.0000412-0.0000229-0.0000389
           dy -0.0000028 0.0000028-0.0000114-0.0000277 0.0000228 0.0000131
           dz  0.0000173-0.0000553-0.0000905-0.0001670 0.0000832 0.0001014

   ATOM             11 h                          12 o 
                  dx        dy        dz        dx        dy        dz
  11 h     dx  0.3277067
           dy -0.0066282 0.0412053
           dz  0.0673032-0.0015232 0.0590542
  12 o     dx -0.0000306 0.0000222-0.0000073 0.2566355
           dy  0.0000103 0.0000100-0.0000112 0.0702779 0.0355272
           dz  0.0001209-0.0000531 0.0000004 0.2041043 0.0713337 0.2810510
 

   *** projected hessian written onto $hessian (projected), file=<hessian> ***

 dipole moment in principle axis system (a.u.) :
    -3.0282554540     1.2799623816     0.0036232601
 norm :   3.28765082107227     

 rotational constants b for rotations around axis of inertia
 and optical intensities for (1 <-- 0) transition

   b   :     0.0829002719     0.0200060232     0.0183578048   (cm**(-1))
   b   :        2485.2876         599.7655         550.3531     (MHz)
  int. :     9.1703310950     1.6383036983     0.0000131280     (a.u.)

   x   :     0.7231304056    -0.0463763910     0.6891528472
   y   :    -0.1420932996     0.9664141412     0.2141336077
   z   :    -0.6759378009    -0.2527705246     0.6922536755

   ***  normal modes written onto $vibrational normal modes, file=<vib_normal_modes>  ***

   ***  vibrational spectroscopic data written onto$vibrational spectrum   
        file=<vibspectrum>  ***

          ---------------------------------------------------
          NORMAL MODES and VIBRATIONAL FREQUENCIES (cm**(-1))
          ---------------------------------------------------

 imaginary wave numbers indicate a negative curvature of the energy surface.
 zero frequency modes have no physical meaning except being generators of
 translations and rotations. each vibrational normal mode - given in terms of
 cartesian displacement vectors of all atoms - has been normalized to unity.
 to obtain mass-weigthed normal coordinates in a.u. divide the tabulated
 modes by sqrt(reduced mass * 1822.88853).
 band intensities or cross sections refer to independent non-degenerate normal
 modes, that is, the intensities of degenerate modes have yet to be added.
 dDIP/dQ is the normal mode derivative of the dipole moment.


       mode               1        2        3        4        5        6

     frequency           0.00     0.00     0.00     0.00     0.00     0.00

     symmetry                                                             

        IR                -        -        -        -        -        - 
|dDIP/dQ|   (a.u.)     0.0000   0.0000   0.0000   0.0000   0.0000   0.0000
intensity (km/mol)       0.00     0.00     0.00     0.00     0.00     0.00
intensity (  %   )       0.00     0.00     0.00     0.00     0.00     0.00
 
       RAMAN              -        -        -        -        -        - 
 
  1   c           x   0.27999  0.00212  0.14625 -0.09310  0.18228 -0.04734
                  y   0.05645  0.09721  0.21835 -0.24745 -0.07401 -0.31500
                  z   0.27935  0.01904 -0.15422  0.20162  0.14756 -0.10340
  2   s           x   0.12095  0.22821 -0.01383 -0.04687  0.21989  0.12725
                  y   0.00767  0.16656  0.16893 -0.23227 -0.06196 -0.26102
                  z   0.12902  0.23020 -0.22448 -0.00083  0.05724 -0.04363
  3   o           x   0.03523  0.16834  0.05285 -0.01219  0.05715  0.18191
                  y   0.13693 -0.07162  0.27787 -0.05787 -0.04268 -0.32586
                  z   0.10752  0.29841 -0.26083 -0.04957  0.07370 -0.03438
  4   pu          x   0.03699  0.07847  0.12815 -0.00801 -0.03122  0.16101
                  y  -0.02996  0.14081  0.09868  0.09217  0.02193 -0.10545
                  z   0.04511  0.07896 -0.07743  0.02621 -0.20127 -0.01529
  5   o           x   0.01607 -0.03866  0.23072  0.00596 -0.17416  0.15210
                  y  -0.12960  0.23967 -0.01962  0.29206  0.08683  0.06633
                  z  -0.01034 -0.10655  0.07897  0.08861 -0.43827  0.00186
  6   o           x   0.14277  0.22602 -0.01613 -0.05477  0.24375  0.10955
                  y  -0.14789  0.39711  0.01508 -0.22076 -0.03235 -0.10233
                  z   0.08755  0.09758 -0.11175  0.04265 -0.11527 -0.03070
  7   o           x  -0.11265  0.31839 -0.04534  0.03403  0.03152  0.33118
                  y  -0.07537  0.21338  0.05591  0.07472  0.02561 -0.06671
                  z  -0.09615  0.30360 -0.16159 -0.17768 -0.26588  0.04136
  8   o           x   0.18666 -0.16377  0.30361 -0.04993 -0.09629 -0.00968
                  y   0.01536  0.06767  0.14110  0.11234  0.01892 -0.14312
                  z   0.18636 -0.14795  0.00831  0.23127 -0.13845 -0.07197
  9   h           x   0.35229  0.02207  0.11571 -0.12071  0.28877 -0.10007
                  y  -0.03503  0.26405  0.14056 -0.36410 -0.08604 -0.26665
                  z   0.30420 -0.05308 -0.11684  0.25446  0.13371 -0.11397
 10   h           x   0.30061 -0.12041  0.24546 -0.09409  0.08356 -0.09021
                  y   0.05857  0.06673  0.20939 -0.13979 -0.04869 -0.27789
                  z   0.29724 -0.09941 -0.08126  0.27428  0.08614 -0.11225
 11   h           x   0.27412 -0.02027  0.16620 -0.08975  0.15274 -0.04757
                  y   0.17238 -0.07732  0.33191 -0.24534 -0.09353 -0.42937
                  z   0.31887  0.09281 -0.22523  0.18756  0.27126 -0.11670
 12   o           x  -0.04108 -0.06889  0.26702  0.02856 -0.27290  0.19065
                  y   0.02106 -0.00830  0.11937  0.37834  0.08139 -0.05186
                  z   0.00000  0.00000  0.00000  0.03952 -0.33843  0.00000

reduced mass(g/mol)     7.754   23.688   19.045   12.288   22.753   19.555


       mode               7        8        9       10       11       12

     frequency          45.62    66.19   115.87   121.27   179.65   195.50

     symmetry            a        a        a        a        a        a   

        IR               YES      YES      YES      YES      YES      YES
|dDIP/dQ|   (a.u.)     0.0017   0.0008   0.0008   0.0015   0.0040   0.0006
intensity (km/mol)       5.07     1.21     1.23     3.76    28.12     0.59
intensity (  %   )       1.25     0.30     0.30     0.93     6.96     0.15
 
       RAMAN             YES      YES      YES      YES      YES      YES
 
  1   c           x   0.13837  0.21579  0.19469  0.28029 -0.09438 -0.03952
                  y   0.04527  0.18088  0.06611 -0.02163  0.15845 -0.01254
                  z   0.13116 -0.27147  0.23058 -0.24246  0.04711 -0.03970
  2   s           x   0.13278 -0.01495 -0.07152  0.03775 -0.32533  0.01718
                  y   0.04352  0.10680 -0.01573 -0.09520  0.05700  0.00460
                  z   0.13363 -0.02048 -0.06839 -0.01732  0.30529  0.02221
  3   o           x  -0.04949  0.00213 -0.10124  0.04181 -0.26239  0.11070
                  y  -0.02649 -0.07347  0.20757 -0.21775 -0.15102  0.02311
                  z   0.17845  0.02076 -0.11761  0.01077  0.36122 -0.00025
  4   pu          x  -0.06751 -0.00419  0.00609 -0.02751  0.06134 -0.00557
                  y  -0.02196 -0.04108 -0.00254  0.06159  0.01556 -0.00103
                  z  -0.06771  0.01793  0.00372  0.00879 -0.06524 -0.00649
  5   o           x   0.20461 -0.05835 -0.03609  0.01852  0.07148 -0.06819
                  y   0.14218  0.23777  0.16642 -0.19838 -0.12096  0.40757
                  z   0.49442 -0.02065 -0.04200  0.04219 -0.03576 -0.04513
  6   o           x   0.16448 -0.00127 -0.05343  0.04930 -0.31332 -0.00334
                  y   0.06117 -0.07599 -0.22322 -0.24470 -0.16838  0.00548
                  z  -0.06145  0.02129 -0.03399  0.02076  0.30137  0.11786
  7   o           x  -0.02884  0.10207  0.20214 -0.02104  0.22591 -0.13995
                  y  -0.01041 -0.03622  0.05822  0.07278  0.05011 -0.04215
                  z  -0.03217 -0.09081  0.20284  0.02807 -0.23606 -0.13853
  8   o           x  -0.15738 -0.10146 -0.16287 -0.03811  0.00507  0.10964
                  y  -0.04953 -0.04372 -0.05624  0.07015 -0.00475  0.03402
                  z  -0.15518  0.11783 -0.16820 -0.00925 -0.00749  0.10409
  9   h           x   0.27420  0.22676  0.30069  0.30310 -0.06689 -0.46216
                  y   0.08587  0.28144 -0.15255  0.07665  0.27795 -0.06959
                  z   0.09047 -0.31463  0.30170 -0.28690 -0.00611  0.05904
 10   h           x   0.03973  0.31233  0.25930  0.38598 -0.00810  0.22959
                  y   0.01156  0.00618  0.10018 -0.20432 -0.01973  0.06755
                  z   0.02957 -0.31267  0.30531 -0.28314 -0.00597  0.22938
 11   h           x   0.10497  0.22885  0.19191  0.29483 -0.08402  0.05968
                  y   0.03938  0.28289  0.30244  0.10629  0.27508 -0.05189
                  z   0.27293 -0.31499  0.27161 -0.28862  0.01412 -0.46534
 12   o           x   0.49975 -0.05959  0.00836  0.02102  0.07069  0.08216
                  y   0.08808  0.23236 -0.14784 -0.21308 -0.10907 -0.40877
                  z   0.21752 -0.01758  0.01078  0.04431 -0.03562  0.05734

reduced mass(g/mol)    15.937    6.202    7.139    7.196   18.512    7.702


       mode              13       14       15       16       17       18

     frequency         203.25   212.29   240.58   259.73   292.58   311.04

     symmetry            a        a        a        a        a        a   

        IR               YES      YES      YES      YES      YES      YES
|dDIP/dQ|   (a.u.)     0.0012   0.0011   0.0010   0.0035   0.0009   0.0008
intensity (km/mol)       2.64     2.29     1.88    21.97     1.36     1.27
intensity (  %   )       0.65     0.57     0.47     5.44     0.34     0.31
 
       RAMAN             YES      YES      YES      YES      YES      YES
 
  1   c           x  -0.00009  0.08831  0.03081 -0.04656 -0.01647 -0.15547
                  y  -0.00076 -0.02975  0.00926 -0.01389  0.03384 -0.04814
                  z  -0.00070 -0.08123  0.03009 -0.04642  0.00833 -0.15662
  2   s           x  -0.00743 -0.06264 -0.00244  0.02745 -0.03340  0.06968
                  y  -0.00284 -0.07713 -0.00106  0.00883  0.01818  0.02121
                  z  -0.00817  0.08669 -0.00221  0.02831  0.02671  0.06985
  3   o           x  -0.10001 -0.05397 -0.20524  0.09152  0.00192 -0.12858
                  y  -0.03814 -0.11373 -0.10013  0.06926 -0.03317  0.22642
                  z   0.01733  0.09896  0.06049 -0.01412  0.03579  0.03941
  4   pu          x   0.00609  0.01209  0.00431 -0.06375  0.01389  0.00530
                  y   0.00201 -0.00367  0.00134 -0.01989  0.00067  0.00164
                  z   0.00630 -0.01112  0.00423 -0.06471 -0.01354  0.00543
  5   o           x  -0.01558 -0.03183 -0.01429 -0.06000  0.32651 -0.00475
                  y   0.06318  0.23794  0.00701 -0.00271  0.01517 -0.00447
                  z  -0.01461 -0.04219 -0.00365  0.06770 -0.32356 -0.00012
  6   o           x   0.01114 -0.06469  0.03839  0.00154 -0.02586  0.11012
                  y   0.01046 -0.11671  0.04797 -0.04071 -0.03823 -0.23132
                  z  -0.10801  0.09561 -0.22715  0.10868  0.01073 -0.05791
  7   o           x  -0.02308 -0.38158  0.02744  0.43241 -0.37264  0.00057
                  y  -0.00689 -0.02383  0.00893  0.13513  0.00291  0.00030
                  z  -0.02148  0.38869  0.03051  0.43848  0.36422  0.00136
  8   o           x   0.04309  0.41704  0.06308  0.43052 -0.38002 -0.02995
                  y   0.01337  0.00196  0.01942  0.13479 -0.03765 -0.00925
                  z   0.04205 -0.41724  0.06196  0.43944  0.38455 -0.02902
  9   h           x   0.53136  0.11083 -0.44814  0.08119 -0.01693 -0.43042
                  y   0.14519  0.07980 -0.16374  0.11270  0.02596  0.29046
                  z  -0.15548 -0.13031  0.18720 -0.12154  0.01202 -0.24724
 10   h           x  -0.38191  0.16900  0.40810 -0.19408 -0.01822 -0.25384
                  y  -0.11786 -0.18221  0.12422 -0.05928  0.03273 -0.07831
                  z  -0.38490 -0.12380  0.40922 -0.19495  0.00935 -0.25561
 11   h           x  -0.13203  0.10205  0.15463 -0.08794 -0.01884 -0.12994
                  y  -0.02427  0.07434  0.07419 -0.11407  0.03112 -0.46310
                  z   0.55574 -0.12682 -0.48457  0.11563  0.01660 -0.31697
 12   o           x   0.00539 -0.03416 -0.00053  0.06884  0.32100  0.00018
                  y  -0.06656  0.24903 -0.01070  0.00407  0.01323  0.00273
                  z   0.00458 -0.04305 -0.01187 -0.06256 -0.32738 -0.00726

reduced mass(g/mol)     1.593   14.112    2.863   15.770   16.051    4.003


       mode              19       20       21       22       23       24

     frequency         340.77   365.72   400.97   534.32   662.59   818.22

     symmetry            a        a        a        a        a        a   

        IR               YES      YES      YES      YES      YES      YES
|dDIP/dQ|   (a.u.)     0.0086   0.0016   0.0030   0.0054   0.0046   0.0008
intensity (km/mol)     132.12     4.36    15.58    51.12    36.89     1.11
intensity (  %   )      32.70     1.08     3.86    12.65     9.13     0.27
 
       RAMAN             YES      YES      YES      YES      YES      YES
 
  1   c           x  -0.01324 -0.00353  0.15975  0.01036 -0.14524 -0.01981
                  y   0.02201 -0.00118 -0.17129 -0.02825  0.39212  0.02522
                  z   0.00544 -0.00344 -0.10633 -0.00161  0.02453  0.01206
  2   s           x  -0.00504  0.01261 -0.01940  0.15294  0.06198 -0.01450
                  y   0.00656  0.00378 -0.12967  0.05821 -0.20495 -0.00337
                  z   0.00301  0.01257  0.05867 -0.17010  0.00101  0.01538
  3   o           x  -0.02275 -0.02359 -0.13425 -0.44857 -0.03312 -0.05602
                  y  -0.01711  0.00145  0.21396 -0.13379  0.00836 -0.02357
                  z   0.01786  0.01057 -0.02434 -0.09244 -0.04322 -0.04935
  4   pu          x   0.09453 -0.02489  0.00333  0.00134 -0.00095  0.00053
                  y   0.00454 -0.00770 -0.00161  0.00087  0.00084 -0.00773
                  z  -0.09485 -0.02519 -0.00282 -0.00162  0.00068  0.00185
  5   o           x  -0.38422  0.61751  0.00699  0.01269  0.00112  0.01614
                  y  -0.02015  0.06940 -0.00213  0.00073 -0.00005 -0.00080
                  z   0.38975 -0.32778 -0.00633 -0.01293 -0.00117 -0.03681
  6   o           x  -0.01299  0.01174 -0.04622  0.10522  0.03723  0.05139
                  y  -0.01548 -0.00510  0.24185  0.03655  0.02983  0.00937
                  z   0.02759 -0.02243  0.06490  0.46431  0.02742  0.05851
  7   o           x  -0.29820  0.03958  0.01223 -0.00807  0.00139  0.11476
                  y  -0.04621  0.01239 -0.00004  0.03558  0.00509 -0.62280
                  z   0.30815  0.03994 -0.01224 -0.00300 -0.00304  0.07859
  8   o           x  -0.31429  0.03846 -0.02964  0.01158  0.00265 -0.12696
                  y   0.01810  0.01215 -0.01185 -0.03794 -0.02175  0.73620
                  z   0.30450  0.03909  0.03309  0.00026  0.00419 -0.10154
  9   h           x  -0.01565 -0.01999  0.22583 -0.04480 -0.08383 -0.00701
                  y   0.01459  0.01807  0.09002 -0.30483  0.60615  0.04188
                  z   0.00971 -0.00835 -0.22771  0.12091 -0.07245  0.00204
 10   h           x  -0.01559 -0.00710  0.39716 -0.24833  0.01738  0.02609
                  y   0.02335 -0.00218 -0.59695  0.43618  0.09865 -0.05243
                  z   0.00591 -0.00698 -0.21184  0.11376 -0.04805 -0.01020
 11   h           x  -0.01549 -0.00182  0.20325 -0.02943 -0.11192 -0.01440
                  y   0.01278 -0.02507  0.08434 -0.29966  0.59803  0.03945
                  z   0.01068 -0.01331 -0.25102  0.13811 -0.09948 -0.00563
 12   o           x  -0.38619 -0.32485  0.00700  0.01282  0.00120  0.03622
                  y  -0.02128  0.02096 -0.00211  0.00077  0.00001  0.00542
                  z   0.38693  0.62392 -0.00629 -0.01292 -0.00109 -0.01664

reduced mass(g/mol)    20.063   16.278    4.358    9.634    4.462   15.910


       mode              25       26       27       28       29       30

     frequency         897.64   914.74   936.37  1000.84  1022.08  1273.41

     symmetry            a        a        a        a        a        a   

        IR               YES      YES      YES      YES      YES      YES
|dDIP/dQ|   (a.u.)     0.0151   0.0017   0.0082   0.0100   0.0101   0.0039
intensity (km/mol)     404.02     5.15   118.41   177.11   183.02    26.76
intensity (  %   )     100.00     1.28    29.31    43.84    45.30     6.62
 
       RAMAN             YES      YES      YES      YES      YES      YES
 
  1   c           x   0.05416  0.10455 -0.09198 -0.07914  0.06208  0.00357
                  y   0.00865  0.03228 -0.05633 -0.06739  0.01865 -0.01402
                  z  -0.05601  0.10433  0.10971  0.09922  0.06445  0.00070
  2   s           x   0.01369  0.00033 -0.02930  0.15453 -0.26499  0.00108
                  y  -0.02245 -0.00017  0.06328  0.02739 -0.08160 -0.00025
                  z  -0.00654  0.00040  0.00993 -0.15969 -0.26949 -0.00103
  3   o           x   0.00738  0.00257 -0.01068  0.00622  0.08040 -0.00130
                  y   0.01986 -0.03584 -0.06308  0.03553  0.10694  0.00034
                  z   0.05592 -0.05002 -0.10190  0.27100  0.43487  0.00257
  4   pu          x  -0.01464 -0.00002 -0.00091 -0.00068 -0.00165 -0.00019
                  y   0.07963 -0.00005  0.00561 -0.00054 -0.00047 -0.00005
                  z  -0.01008 -0.00002 -0.00083  0.00085 -0.00163  0.00022
  5   o           x   0.00247 -0.00035 -0.00021  0.00073  0.00312  0.48376
                  y  -0.00746 -0.00004 -0.00039 -0.00036  0.00033  0.15013
                  z  -0.00237  0.00019  0.00123 -0.00439 -0.00180  0.48691
  6   o           x  -0.05954 -0.05875  0.11461 -0.27318  0.43708 -0.00266
                  y  -0.00040  0.01898 -0.02430 -0.04935  0.05255 -0.00009
                  z  -0.01069 -0.00617  0.02447 -0.00618  0.09041  0.00124
  7   o           x   0.12259  0.00002  0.00471  0.00427  0.00458  0.00527
                  y  -0.65554  0.00030 -0.02980 -0.01851  0.00104 -0.01414
                  z   0.08087  0.00003  0.00456  0.00141  0.00462 -0.00088
  8   o           x   0.08889 -0.00006  0.01024 -0.00492  0.00495 -0.00020
                  y  -0.52828  0.00028 -0.05135  0.02764  0.00150  0.01507
                  z   0.07510 -0.00004  0.00567 -0.00368  0.00489 -0.00444
  9   h           x  -0.03306 -0.31503  0.09460  0.10971 -0.22463 -0.01683
                  y  -0.17291  0.59131  0.37795  0.38318  0.37794  0.05589
                  z   0.03777 -0.06093 -0.11071 -0.12712 -0.05267 -0.02299
 10   h           x  -0.15771 -0.17098  0.28433  0.23251 -0.14566 -0.03210
                  y   0.37794 -0.04913 -0.72775 -0.60810 -0.05208  0.05191
                  z   0.04123 -0.17075 -0.06298 -0.04579 -0.14961  0.01614
 11   h           x   0.01296  0.12926  0.00211  0.01575  0.07103  0.00488
                  y  -0.16193 -0.65109  0.34291  0.35472 -0.41722  0.06247
                  z   0.08343 -0.12434 -0.20678 -0.22163 -0.10737 -0.00117
 12   o           x   0.00460  0.00019 -0.00107  0.00435 -0.00171 -0.48410
                  y  -0.00688 -0.00001 -0.00067  0.00076  0.00011 -0.15029
                  z  -0.00020 -0.00035  0.00036 -0.00080  0.00313 -0.48668

reduced mass(g/mol)    13.979    1.374    1.918    5.087   11.877   15.821


       mode              31       32       33       34       35       36

     frequency        1281.80  1437.31  1446.27  3039.77  3148.11  3156.68

     symmetry            a        a        a        a        a        a   

        IR               YES      YES      YES      YES      YES      YES
|dDIP/dQ|   (a.u.)     0.0032   0.0013   0.0016   0.0040   0.0027   0.0006
intensity (km/mol)      18.25     3.07     4.48    28.14    12.93     0.65
intensity (  %   )       4.52     0.76     1.11     6.97     3.20     0.16
 
       RAMAN             YES      YES      YES      YES      YES      YES
 
  1   c           x   0.03923 -0.04134  0.04408  0.01131  0.06422  0.06395
                  y  -0.13205 -0.00692  0.01347 -0.04042  0.01961  0.01796
                  z   0.00118  0.04296  0.04454  0.00093  0.06578 -0.06781
  2   s           x  -0.00362 -0.00419  0.00276 -0.00004  0.00052  0.00027
                  y   0.00127 -0.00333  0.00083  0.00019  0.00016  0.00041
                  z   0.00321  0.00518  0.00280 -0.00002  0.00053 -0.00038
  3   o           x   0.00053  0.00161 -0.00052 -0.00013 -0.00023 -0.00009
                  y  -0.00070  0.00222  0.00034 -0.00009  0.00005 -0.00010
                  z  -0.00619 -0.00134  0.00007 -0.00019 -0.00046  0.00021
  4   pu          x   0.00008  0.00005 -0.00001 -0.00001  0.00000 -0.00000
                  y  -0.00041 -0.00018 -0.00000  0.00002  0.00000 -0.00002
                  z   0.00005  0.00001 -0.00001  0.00000  0.00000  0.00001
  5   o           x  -0.00415 -0.00022  0.00001  0.00003 -0.00000 -0.00000
                  y  -0.00123 -0.00004  0.00000  0.00000 -0.00000  0.00000
                  z  -0.00397 -0.00009  0.00001 -0.00001  0.00000  0.00000
  6   o           x   0.00613  0.00069  0.00019  0.00020 -0.00041 -0.00019
                  y   0.00104  0.00195 -0.00041  0.00001 -0.00025 -0.00014
                  z  -0.00055 -0.00225 -0.00041  0.00014 -0.00019  0.00012
  7   o           x  -0.00030 -0.00010 -0.00005  0.00002 -0.00001  0.00001
                  y   0.00179  0.00073 -0.00002 -0.00010 -0.00000  0.00005
                  z  -0.00026 -0.00013 -0.00005  0.00001 -0.00001 -0.00002
  8   o           x  -0.00144 -0.00073  0.00056  0.00001 -0.00002  0.00006
                  y   0.00352  0.00160  0.00017 -0.00029 -0.00001  0.00031
                  z   0.00036  0.00024  0.00057  0.00008 -0.00002 -0.00015
  9   h           x  -0.18734  0.65528 -0.22523  0.10096 -0.10621  0.07692
                  y   0.49282  0.01061 -0.34841  0.20711 -0.26331  0.15284
                  z  -0.19902 -0.09891  0.22299  0.52771 -0.64748  0.36459
 10   h           x  -0.29582 -0.18644 -0.51189  0.32331  0.01793 -0.44165
                  y   0.48737  0.27175 -0.15552  0.26509  0.00794 -0.38781
                  z   0.14608  0.10541 -0.51390 -0.40214  0.00823  0.55735
 11   h           x   0.03764  0.12343  0.12372 -0.55820 -0.68376 -0.40149
                  y   0.56099 -0.15333  0.31661  0.00512  0.01967  0.01073
                  z   0.02734 -0.63132 -0.32889 -0.13614 -0.15151 -0.10673
 12   o           x   0.00394  0.00008  0.00001  0.00001  0.00000 -0.00000
                  y   0.00128  0.00006  0.00000 -0.00000  0.00000  0.00000
                  z   0.00417  0.00022  0.00001 -0.00003 -0.00000  0.00000

reduced mass(g/mol)     1.220    1.050    1.054    1.027    1.105    1.107
 

         **************************************************************
         *                                                            *
         *  zero point VIBRATIONAL energy  :      0.0567746  Hartree  *
         *    SCF-energy                   :  -1443.0255331           *
         *    SCF + E(vib0)                :  -1442.9687584           *
         *                                                            *
         **************************************************************




 time elapsed for vibrational analysis     0.14 sec


    ------------------------------------------------------------------------
         total  cpu-time :   1 days  0 hours 43 minutes and 57 seconds
         total wall-time :  3 hours  8 minutes and 33 seconds
    ------------------------------------------------------------------------

   ****  force : all done  ****


    2018-02-06 21:24:01.794 

aoforce ended normally 
