 Molden2AIM, Version 4.2.1 (05/11/2018)           Time: Sat Dec 15 02:02:09 2018
GAUSSIAN              8 MOL ORBITALS   4100 PRIMITIVES       12 NUCLEI
  C    1    (CENTRE  1)  -5.43071384  3.61597204 -3.72340297  CHARGE =  6.0
  S    2    (CENTRE  2)  -4.90472747  3.27982756 -0.34750174  CHARGE = 16.0
  O    3    (CENTRE  3)  -4.77106714  0.39911016 -0.07398278  CHARGE =  8.0
  Np   4    (CENTRE  4)   0.00000000  0.00000000  0.00000000  CHARGE = 93.0
  O    5    (CENTRE  5)   4.00844926 -1.95798303 -0.06052793  CHARGE =  8.0
  O    6    (CENTRE  6)  -2.20207896  4.28325324 -0.08456524  CHARGE =  8.0
  O    7    (CENTRE  7)   0.00000000  0.00000000  3.35447174  CHARGE =  8.0
  O    8    (CENTRE  8)   0.05130606  0.08705968 -3.36220072  CHARGE =  8.0
  H    9    (CENTRE  9)  -5.39567831  5.62335252 -4.18838898  CHARGE =  1.0
  H   10    (CENTRE 10)  -3.89808926  2.60143478 -4.65719224  CHARGE =  1.0
  H   11    (CENTRE 11)  -7.26467414  2.79314749 -4.17791990  CHARGE =  1.0
  O   12    (CENTRE 12)   2.33730776 -3.78377972 -0.12986198  CHARGE =  8.0
CENTRE ASSIGNMENTS    1  1  1  1  1  1  1  1  1  1  1  1  1  1  1  1  1  1  1  1
CENTRE ASSIGNMENTS    1  1  1  1  1  1  1  1  1  1  1  1  1  1  1  1  1  1  1  1
CENTRE ASSIGNMENTS    1  1  1  1  1  1  1  1  1  1  1  1  1  1  1  1  1  1  1  1
CENTRE ASSIGNMENTS    1  1  1  1  1  1  1  1  1  1  1  1  1  1  1  1  1  1  1  1
CENTRE ASSIGNMENTS    1  1  1  1  1  1  1  1  1  1  1  1  1  1  1  1  1  1  1  1
CENTRE ASSIGNMENTS    1  1  1  1  1  1  1  1  1  1  1  1  1  1  1  1  1  1  1  1
CENTRE ASSIGNMENTS    1  1  1  1  1  1  1  1  1  1  1  1  1  1  1  1  1  1  1  1
CENTRE ASSIGNMENTS    1  1  1  1  1  1  1  1  1  1  1  1  1  1  1  1  1  1  1  1
CENTRE ASSIGNMENTS    1  1  1  1  1  1  1  1  1  1  1  1  1  1  1  1  1  1  1  1
CENTRE ASSIGNMENTS    1  1  1  1  1  1  1  1  1  1  1  1  1  1  1  1  1  1  1  1
CENTRE ASSIGNMENTS    1  1  1  1  1  1  1  1  1  1  1  1  1  1  1  2  2  2  2  2
CENTRE ASSIGNMENTS    2  2  2  2  2  2  2  2  2  2  2  2  2  2  2  2  2  2  2  2
CENTRE ASSIGNMENTS    2  2  2  2  2  2  2  2  2  2  2  2  2  2  2  2  2  2  2  2
CENTRE ASSIGNMENTS    2  2  2  2  2  2  2  2  2  2  2  2  2  2  2  2  2  2  2  2
CENTRE ASSIGNMENTS    2  2  2  2  2  2  2  2  2  2  2  2  2  2  2  2  2  2  2  2
CENTRE ASSIGNMENTS    2  2  2  2  2  2  2  2  2  2  2  2  2  2  2  2  2  2  2  2
CENTRE ASSIGNMENTS    2  2  2  2  2  2  2  2  2  2  2  2  2  2  2  2  2  2  2  2
CENTRE ASSIGNMENTS    2  2  2  2  2  2  2  2  2  2  2  2  2  2  2  2  2  2  2  2
CENTRE ASSIGNMENTS    2  2  2  2  2  2  2  2  2  2  2  2  2  2  2  2  2  2  2  2
CENTRE ASSIGNMENTS    2  2  2  2  2  2  2  2  2  2  2  2  2  2  2  2  2  2  2  2
CENTRE ASSIGNMENTS    2  2  2  2  2  2  2  2  2  2  2  2  2  2  2  2  2  2  2  2
CENTRE ASSIGNMENTS    2  2  2  2  2  2  2  2  2  2  2  2  2  2  2  2  2  2  2  2
CENTRE ASSIGNMENTS    2  2  2  2  2  2  2  2  2  2  2  2  2  2  2  2  2  2  2  2
CENTRE ASSIGNMENTS    2  2  2  2  2  2  2  2  2  2  2  2  2  2  2  2  2  2  2  2
CENTRE ASSIGNMENTS    2  2  2  2  2  2  2  2  2  2  2  2  2  2  2  2  2  2  2  2
CENTRE ASSIGNMENTS    2  2  2  2  2  2  2  2  2  2  2  2  2  2  2  2  2  2  2  2
CENTRE ASSIGNMENTS    2  2  2  2  2  2  2  2  2  2  2  2  2  2  2  2  2  2  2  2
CENTRE ASSIGNMENTS    2  2  2  2  3  3  3  3  3  3  3  3  3  3  3  3  3  3  3  3
CENTRE ASSIGNMENTS    3  3  3  3  3  3  3  3  3  3  3  3  3  3  3  3  3  3  3  3
CENTRE ASSIGNMENTS    3  3  3  3  3  3  3  3  3  3  3  3  3  3  3  3  3  3  3  3
CENTRE ASSIGNMENTS    3  3  3  3  3  3  3  3  3  3  3  3  3  3  3  3  3  3  3  3
CENTRE ASSIGNMENTS    3  3  3  3  3  3  3  3  3  3  3  3  3  3  3  3  3  3  3  3
CENTRE ASSIGNMENTS    3  3  3  3  3  3  3  3  3  3  3  3  3  3  3  3  3  3  3  3
CENTRE ASSIGNMENTS    3  3  3  3  3  3  3  3  3  3  3  3  3  3  3  3  3  3  3  3
CENTRE ASSIGNMENTS    3  3  3  3  3  3  3  3  3  3  3  3  3  3  3  3  3  3  3  3
CENTRE ASSIGNMENTS    3  3  3  3  3  3  3  3  3  3  3  3  3  3  3  3  3  3  3  3
CENTRE ASSIGNMENTS    3  3  3  3  3  3  3  3  3  3  3  3  3  3  3  3  3  3  3  3
CENTRE ASSIGNMENTS    3  3  3  3  3  3  3  3  3  3  3  3  3  3  3  3  3  3  3  4
CENTRE ASSIGNMENTS    4  4  4  4  4  4  4  4  4  4  4  4  4  4  4  4  4  4  4  4
CENTRE ASSIGNMENTS    4  4  4  4  4  4  4  4  4  4  4  4  4  4  4  4  4  4  4  4
CENTRE ASSIGNMENTS    4  4  4  4  4  4  4  4  4  4  4  4  4  4  4  4  4  4  4  4
CENTRE ASSIGNMENTS    4  4  4  4  4  4  4  4  4  4  4  4  4  4  4  4  4  4  4  4
CENTRE ASSIGNMENTS    4  4  4  4  4  4  4  4  4  4  4  4  4  4  4  4  4  4  4  4
CENTRE ASSIGNMENTS    4  4  4  4  4  4  4  4  4  4  4  4  4  4  4  4  4  4  4  4
CENTRE ASSIGNMENTS    4  4  4  4  4  4  4  4  4  4  4  4  4  4  4  4  4  4  4  4
CENTRE ASSIGNMENTS    4  4  4  4  4  4  4  4  4  4  4  4  4  4  4  4  4  4  4  4
CENTRE ASSIGNMENTS    4  4  4  4  4  4  4  4  4  4  4  4  4  4  4  4  4  4  4  4
CENTRE ASSIGNMENTS    4  4  4  4  4  4  4  4  4  4  4  4  4  4  4  4  4  4  4  4
CENTRE ASSIGNMENTS    4  4  4  4  4  4  4  4  4  4  4  4  4  4  4  4  4  4  4  4
CENTRE ASSIGNMENTS    4  4  4  4  4  4  4  4  4  4  4  4  4  4  4  4  4  4  4  4
CENTRE ASSIGNMENTS    4  4  4  4  4  4  4  4  4  4  4  4  4  4  4  4  4  4  4  4
CENTRE ASSIGNMENTS    4  4  4  4  4  4  4  4  4  4  4  4  4  4  4  4  4  4  4  4
CENTRE ASSIGNMENTS    4  4  4  4  4  4  4  4  4  4  4  4  4  4  4  4  4  4  4  4
CENTRE ASSIGNMENTS    4  4  4  4  4  4  4  4  4  4  4  4  4  4  4  4  4  4  4  4
CENTRE ASSIGNMENTS    4  4  4  4  4  4  4  4  4  4  4  4  4  4  4  4  4  4  4  4
CENTRE ASSIGNMENTS    4  4  4  4  4  4  4  4  4  4  4  4  4  4  4  4  4  4  4  4
CENTRE ASSIGNMENTS    4  4  4  4  4  4  4  4  4  4  4  4  4  4  4  4  4  4  4  4
CENTRE ASSIGNMENTS    4  4  4  4  4  4  4  4  4  4  4  4  4  4  4  4  4  4  4  4
CENTRE ASSIGNMENTS    4  4  4  4  4  4  4  4  4  4  4  4  4  4  4  4  4  4  4  4
CENTRE ASSIGNMENTS    4  4  4  4  4  4  4  4  4  4  4  4  4  4  4  4  4  4  4  4
CENTRE ASSIGNMENTS    4  4  4  4  4  4  4  4  4  4  4  4  4  4  4  4  4  4  4  4
CENTRE ASSIGNMENTS    4  4  4  4  4  4  4  4  4  4  4  4  4  4  4  4  4  4  4  4
CENTRE ASSIGNMENTS    4  4  4  4  4  4  4  4  4  4  4  4  4  4  4  4  4  4  4  4
CENTRE ASSIGNMENTS    4  4  4  4  4  4  4  4  4  4  4  4  4  4  4  4  4  4  4  4
CENTRE ASSIGNMENTS    4  4  4  4  4  4  4  4  4  4  4  4  4  4  4  4  4  4  4  4
CENTRE ASSIGNMENTS    4  4  4  4  4  4  4  4  4  4  4  4  4  4  4  4  4  4  4  4
CENTRE ASSIGNMENTS    4  4  4  4  4  4  4  4  4  4  4  4  4  4  4  4  4  4  4  4
CENTRE ASSIGNMENTS    4  4  4  4  4  4  4  4  4  4  4  4  4  4  4  4  4  4  4  4
CENTRE ASSIGNMENTS    4  4  4  4  4  4  4  4  4  4  4  4  4  4  4  4  4  4  4  4
CENTRE ASSIGNMENTS    4  4  4  4  4  4  4  4  4  4  4  4  4  4  4  4  4  4  4  4
CENTRE ASSIGNMENTS    4  4  4  4  4  4  4  4  4  4  4  4  4  4  4  4  4  4  4  4
CENTRE ASSIGNMENTS    4  4  4  4  4  4  4  4  4  4  4  4  4  4  4  4  4  4  4  4
CENTRE ASSIGNMENTS    4  4  4  4  4  4  4  4  4  4  4  4  4  4  4  4  4  4  4  4
CENTRE ASSIGNMENTS    4  4  4  4  4  4  4  4  4  4  4  4  4  4  4  4  4  4  4  4
CENTRE ASSIGNMENTS    4  4  4  4  4  4  4  4  4  4  4  4  4  4  4  4  4  4  4  4
CENTRE ASSIGNMENTS    4  4  4  4  4  4  4  4  4  4  4  4  4  4  4  4  4  4  4  4
CENTRE ASSIGNMENTS    4  4  4  4  4  4  4  4  4  4  4  4  4  4  4  4  4  4  4  4
CENTRE ASSIGNMENTS    4  4  4  4  4  4  4  4  4  4  4  4  4  4  4  4  4  4  4  4
CENTRE ASSIGNMENTS    4  4  4  4  4  4  4  4  4  4  4  4  4  4  4  4  4  4  4  4
CENTRE ASSIGNMENTS    4  4  4  4  4  4  4  4  4  4  4  4  4  4  4  4  4  4  4  4
CENTRE ASSIGNMENTS    4  4  4  4  4  4  4  4  4  4  4  4  4  4  4  4  4  4  4  4
CENTRE ASSIGNMENTS    4  4  4  4  4  4  4  4  4  4  4  4  4  4  4  4  4  4  4  4
CENTRE ASSIGNMENTS    4  4  4  4  4  4  4  4  4  4  4  4  4  4  4  4  4  4  4  4
CENTRE ASSIGNMENTS    4  4  4  4  4  4  4  4  4  4  4  4  4  4  4  4  4  4  4  4
CENTRE ASSIGNMENTS    4  4  4  4  4  4  4  4  4  4  4  4  4  4  4  4  4  4  4  4
CENTRE ASSIGNMENTS    4  4  4  4  4  4  4  4  4  4  4  4  4  4  4  4  4  4  4  4
CENTRE ASSIGNMENTS    4  4  4  4  4  4  4  4  4  4  4  4  4  4  4  4  4  4  4  4
CENTRE ASSIGNMENTS    4  4  4  4  4  4  4  4  4  4  4  4  4  4  4  4  4  4  4  4
CENTRE ASSIGNMENTS    4  4  4  4  4  4  4  4  4  4  4  4  4  4  4  4  4  4  4  4
CENTRE ASSIGNMENTS    4  4  4  4  4  4  4  4  4  4  4  4  4  4  4  4  4  4  4  4
CENTRE ASSIGNMENTS    4  4  4  4  4  4  4  4  4  4  4  4  4  4  4  4  4  4  4  4
CENTRE ASSIGNMENTS    4  4  4  4  4  4  4  4  4  4  4  4  4  4  4  4  4  4  4  4
CENTRE ASSIGNMENTS    4  4  4  4  4  4  4  4  4  4  4  4  4  4  4  4  4  4  4  4
CENTRE ASSIGNMENTS    4  4  4  4  4  4  4  4  4  4  4  4  4  4  4  4  4  4  4  4
CENTRE ASSIGNMENTS    4  4  4  4  4  4  4  4  4  4  4  4  4  4  4  4  4  4  4  4
CENTRE ASSIGNMENTS    4  4  4  4  4  4  4  4  4  4  4  4  4  4  4  4  4  4  4  4
CENTRE ASSIGNMENTS    4  4  4  4  4  4  4  4  4  4  4  4  4  4  4  4  4  4  4  4
CENTRE ASSIGNMENTS    4  4  4  4  4  4  4  4  4  4  4  4  4  4  4  4  4  4  4  4
CENTRE ASSIGNMENTS    4  4  4  4  4  4  4  4  4  4  4  4  4  4  4  4  4  4  4  4
CENTRE ASSIGNMENTS    4  4  4  4  4  4  4  4  4  4  4  4  4  4  4  4  4  4  4  4
CENTRE ASSIGNMENTS    4  4  4  4  4  4  4  4  4  4  4  4  4  4  4  4  4  4  4  4
CENTRE ASSIGNMENTS    4  4  4  4  4  4  4  4  4  4  4  4  4  4  4  4  4  4  4  4
CENTRE ASSIGNMENTS    4  4  4  4  4  4  4  4  4  4  4  4  4  4  4  4  4  4  4  4
CENTRE ASSIGNMENTS    4  4  4  4  4  4  4  4  4  4  4  4  4  4  4  4  4  4  4  4
CENTRE ASSIGNMENTS    4  4  4  4  4  4  4  4  4  4  4  4  4  4  4  4  4  4  4  4
CENTRE ASSIGNMENTS    4  4  4  4  4  4  4  4  4  4  4  4  4  4  4  4  4  4  4  4
CENTRE ASSIGNMENTS    4  4  4  4  4  4  4  4  4  4  4  4  4  4  4  4  4  4  4  4
CENTRE ASSIGNMENTS    4  4  4  4  4  4  4  4  4  4  4  4  4  4  4  4  4  4  4  4
CENTRE ASSIGNMENTS    4  4  4  4  4  4  4  4  4  4  4  4  4  4  4  4  4  4  4  4
CENTRE ASSIGNMENTS    4  4  4  4  4  4  4  4  4  4  4  4  4  4  4  4  4  4  4  4
CENTRE ASSIGNMENTS    4  4  4  4  4  4  4  4  4  4  4  4  4  4  4  4  4  4  4  4
CENTRE ASSIGNMENTS    4  4  4  4  4  4  4  4  4  4  4  4  4  4  4  4  4  4  4  4
CENTRE ASSIGNMENTS    4  4  4  4  4  4  4  4  4  4  4  4  4  4  4  4  4  4  4  4
CENTRE ASSIGNMENTS    4  4  4  4  4  4  4  4  4  4  4  4  4  4  4  4  4  4  4  4
CENTRE ASSIGNMENTS    4  4  4  4  4  4  4  4  4  4  4  4  4  4  4  4  4  4  4  4
CENTRE ASSIGNMENTS    4  4  4  4  4  4  4  4  4  4  4  4  4  4  4  4  4  4  4  4
CENTRE ASSIGNMENTS    4  4  4  4  4  4  4  4  4  4  4  4  4  4  4  4  4  4  4  4
CENTRE ASSIGNMENTS    4  4  4  4  4  4  4  4  4  4  4  4  4  4  4  4  4  4  4  4
CENTRE ASSIGNMENTS    4  4  4  4  4  4  4  4  4  4  4  4  4  4  4  4  4  4  4  4
CENTRE ASSIGNMENTS    4  4  4  4  4  4  4  4  4  4  4  4  4  4  4  4  4  4  4  4
CENTRE ASSIGNMENTS    4  4  4  4  4  4  4  4  4  4  4  4  4  4  4  4  4  4  4  4
CENTRE ASSIGNMENTS    4  4  4  4  4  4  4  4  4  4  4  4  4  4  4  4  4  4  4  4
CENTRE ASSIGNMENTS    4  4  4  4  4  4  4  4  4  4  4  4  4  4  4  4  4  4  4  4
CENTRE ASSIGNMENTS    4  4  4  4  4  4  4  4  4  4  4  4  4  4  4  4  4  4  4  4
CENTRE ASSIGNMENTS    4  4  4  4  4  4  4  4  4  4  4  4  4  4  4  4  4  4  4  4
CENTRE ASSIGNMENTS    4  4  4  4  4  4  4  4  4  4  4  4  4  4  4  4  4  4  4  4
CENTRE ASSIGNMENTS    4  4  4  4  4  4  4  4  4  4  4  4  4  4  4  4  4  4  4  4
CENTRE ASSIGNMENTS    4  4  4  4  4  4  4  4  4  4  4  4  4  4  4  4  4  4  4  4
CENTRE ASSIGNMENTS    4  4  4  4  4  4  4  4  4  4  4  4  4  4  4  4  4  4  4  4
CENTRE ASSIGNMENTS    4  4  4  4  4  4  4  4  4  4  4  4  4  4  4  4  4  4  4  4
CENTRE ASSIGNMENTS    4  4  4  4  4  4  4  4  4  4  4  4  4  4  4  4  4  4  4  4
CENTRE ASSIGNMENTS    4  4  4  4  4  4  4  4  4  4  4  4  4  4  4  4  4  4  4  4
CENTRE ASSIGNMENTS    4  4  4  4  4  4  4  4  4  4  4  4  4  4  4  4  4  4  4  4
CENTRE ASSIGNMENTS    4  4  4  4  4  4  4  4  4  4  4  4  4  4  4  4  4  4  4  4
CENTRE ASSIGNMENTS    4  4  4  4  4  4  4  4  4  4  4  4  4  4  4  4  4  4  4  4
CENTRE ASSIGNMENTS    4  4  4  4  4  4  4  4  4  4  4  4  4  4  4  4  4  4  4  4
CENTRE ASSIGNMENTS    4  4  4  4  4  4  4  4  4  4  4  4  4  4  4  4  4  4  4  4
CENTRE ASSIGNMENTS    4  4  4  4  4  4  4  4  4  4  4  4  4  4  4  4  4  4  4  4
CENTRE ASSIGNMENTS    4  4  4  4  4  4  4  4  4  4  4  4  4  4  4  4  4  4  4  4
CENTRE ASSIGNMENTS    4  4  4  4  4  4  4  4  4  4  4  4  4  4  4  4  4  4  4  4
CENTRE ASSIGNMENTS    4  4  4  4  4  4  4  4  4  4  4  4  4  4  4  4  4  4  4  4
CENTRE ASSIGNMENTS    4  4  4  4  4  4  4  5  5  5  5  5  5  5  5  5  5  5  5  5
CENTRE ASSIGNMENTS    5  5  5  5  5  5  5  5  5  5  5  5  5  5  5  5  5  5  5  5
CENTRE ASSIGNMENTS    5  5  5  5  5  5  5  5  5  5  5  5  5  5  5  5  5  5  5  5
CENTRE ASSIGNMENTS    5  5  5  5  5  5  5  5  5  5  5  5  5  5  5  5  5  5  5  5
CENTRE ASSIGNMENTS    5  5  5  5  5  5  5  5  5  5  5  5  5  5  5  5  5  5  5  5
CENTRE ASSIGNMENTS    5  5  5  5  5  5  5  5  5  5  5  5  5  5  5  5  5  5  5  5
CENTRE ASSIGNMENTS    5  5  5  5  5  5  5  5  5  5  5  5  5  5  5  5  5  5  5  5
CENTRE ASSIGNMENTS    5  5  5  5  5  5  5  5  5  5  5  5  5  5  5  5  5  5  5  5
CENTRE ASSIGNMENTS    5  5  5  5  5  5  5  5  5  5  5  5  5  5  5  5  5  5  5  5
CENTRE ASSIGNMENTS    5  5  5  5  5  5  5  5  5  5  5  5  5  5  5  5  5  5  5  5
CENTRE ASSIGNMENTS    5  5  5  5  5  5  5  5  5  5  5  5  5  5  5  5  5  5  5  5
CENTRE ASSIGNMENTS    5  5  6  6  6  6  6  6  6  6  6  6  6  6  6  6  6  6  6  6
CENTRE ASSIGNMENTS    6  6  6  6  6  6  6  6  6  6  6  6  6  6  6  6  6  6  6  6
CENTRE ASSIGNMENTS    6  6  6  6  6  6  6  6  6  6  6  6  6  6  6  6  6  6  6  6
CENTRE ASSIGNMENTS    6  6  6  6  6  6  6  6  6  6  6  6  6  6  6  6  6  6  6  6
CENTRE ASSIGNMENTS    6  6  6  6  6  6  6  6  6  6  6  6  6  6  6  6  6  6  6  6
CENTRE ASSIGNMENTS    6  6  6  6  6  6  6  6  6  6  6  6  6  6  6  6  6  6  6  6
CENTRE ASSIGNMENTS    6  6  6  6  6  6  6  6  6  6  6  6  6  6  6  6  6  6  6  6
CENTRE ASSIGNMENTS    6  6  6  6  6  6  6  6  6  6  6  6  6  6  6  6  6  6  6  6
CENTRE ASSIGNMENTS    6  6  6  6  6  6  6  6  6  6  6  6  6  6  6  6  6  6  6  6
CENTRE ASSIGNMENTS    6  6  6  6  6  6  6  6  6  6  6  6  6  6  6  6  6  6  6  6
CENTRE ASSIGNMENTS    6  6  6  6  6  6  6  6  6  6  6  6  6  6  6  6  6  7  7  7
CENTRE ASSIGNMENTS    7  7  7  7  7  7  7  7  7  7  7  7  7  7  7  7  7  7  7  7
CENTRE ASSIGNMENTS    7  7  7  7  7  7  7  7  7  7  7  7  7  7  7  7  7  7  7  7
CENTRE ASSIGNMENTS    7  7  7  7  7  7  7  7  7  7  7  7  7  7  7  7  7  7  7  7
CENTRE ASSIGNMENTS    7  7  7  7  7  7  7  7  7  7  7  7  7  7  7  7  7  7  7  7
CENTRE ASSIGNMENTS    7  7  7  7  7  7  7  7  7  7  7  7  7  7  7  7  7  7  7  7
CENTRE ASSIGNMENTS    7  7  7  7  7  7  7  7  7  7  7  7  7  7  7  7  7  7  7  7
CENTRE ASSIGNMENTS    7  7  7  7  7  7  7  7  7  7  7  7  7  7  7  7  7  7  7  7
CENTRE ASSIGNMENTS    7  7  7  7  7  7  7  7  7  7  7  7  7  7  7  7  7  7  7  7
CENTRE ASSIGNMENTS    7  7  7  7  7  7  7  7  7  7  7  7  7  7  7  7  7  7  7  7
CENTRE ASSIGNMENTS    7  7  7  7  7  7  7  7  7  7  7  7  7  7  7  7  7  7  7  7
CENTRE ASSIGNMENTS    7  7  7  7  7  7  7  7  7  7  7  7  8  8  8  8  8  8  8  8
CENTRE ASSIGNMENTS    8  8  8  8  8  8  8  8  8  8  8  8  8  8  8  8  8  8  8  8
CENTRE ASSIGNMENTS    8  8  8  8  8  8  8  8  8  8  8  8  8  8  8  8  8  8  8  8
CENTRE ASSIGNMENTS    8  8  8  8  8  8  8  8  8  8  8  8  8  8  8  8  8  8  8  8
CENTRE ASSIGNMENTS    8  8  8  8  8  8  8  8  8  8  8  8  8  8  8  8  8  8  8  8
CENTRE ASSIGNMENTS    8  8  8  8  8  8  8  8  8  8  8  8  8  8  8  8  8  8  8  8
CENTRE ASSIGNMENTS    8  8  8  8  8  8  8  8  8  8  8  8  8  8  8  8  8  8  8  8
CENTRE ASSIGNMENTS    8  8  8  8  8  8  8  8  8  8  8  8  8  8  8  8  8  8  8  8
CENTRE ASSIGNMENTS    8  8  8  8  8  8  8  8  8  8  8  8  8  8  8  8  8  8  8  8
CENTRE ASSIGNMENTS    8  8  8  8  8  8  8  8  8  8  8  8  8  8  8  8  8  8  8  8
CENTRE ASSIGNMENTS    8  8  8  8  8  8  8  8  8  8  8  8  8  8  8  8  8  8  8  8
CENTRE ASSIGNMENTS    8  8  8  8  8  8  8  9  9  9  9  9  9  9  9  9  9  9  9  9
CENTRE ASSIGNMENTS    9  9  9  9  9  9  9  9  9  9  9  9  9  9  9  9  9  9  9  9
CENTRE ASSIGNMENTS    9  9  9  9  9  9  9  9  9  9  9  9  9  9  9  9  9  9  9  9
CENTRE ASSIGNMENTS    9  9  9  9  9  9  9  9  9  9  9  9  9 10 10 10 10 10 10 10
CENTRE ASSIGNMENTS   10 10 10 10 10 10 10 10 10 10 10 10 10 10 10 10 10 10 10 10
CENTRE ASSIGNMENTS   10 10 10 10 10 10 10 10 10 10 10 10 10 10 10 10 10 10 10 10
CENTRE ASSIGNMENTS   10 10 10 10 10 10 10 10 10 10 10 10 10 10 10 10 10 10 10 11
CENTRE ASSIGNMENTS   11 11 11 11 11 11 11 11 11 11 11 11 11 11 11 11 11 11 11 11
CENTRE ASSIGNMENTS   11 11 11 11 11 11 11 11 11 11 11 11 11 11 11 11 11 11 11 11
CENTRE ASSIGNMENTS   11 11 11 11 11 11 11 11 11 11 11 11 11 11 11 11 11 11 11 11
CENTRE ASSIGNMENTS   11 11 11 11 11 12 12 12 12 12 12 12 12 12 12 12 12 12 12 12
CENTRE ASSIGNMENTS   12 12 12 12 12 12 12 12 12 12 12 12 12 12 12 12 12 12 12 12
CENTRE ASSIGNMENTS   12 12 12 12 12 12 12 12 12 12 12 12 12 12 12 12 12 12 12 12
CENTRE ASSIGNMENTS   12 12 12 12 12 12 12 12 12 12 12 12 12 12 12 12 12 12 12 12
CENTRE ASSIGNMENTS   12 12 12 12 12 12 12 12 12 12 12 12 12 12 12 12 12 12 12 12
CENTRE ASSIGNMENTS   12 12 12 12 12 12 12 12 12 12 12 12 12 12 12 12 12 12 12 12
CENTRE ASSIGNMENTS   12 12 12 12 12 12 12 12 12 12 12 12 12 12 12 12 12 12 12 12
CENTRE ASSIGNMENTS   12 12 12 12 12 12 12 12 12 12 12 12 12 12 12 12 12 12 12 12
CENTRE ASSIGNMENTS   12 12 12 12 12 12 12 12 12 12 12 12 12 12 12 12 12 12 12 12
CENTRE ASSIGNMENTS   12 12 12 12 12 12 12 12 12 12 12 12 12 12 12 12 12 12 12 12
CENTRE ASSIGNMENTS   12 12 12 12 12 12 12 12 12 12 12 12 12 12 12 12 12 12 12 12
TYPE ASSIGNMENTS      1  1  1  1  1  1  1  1  1  1  1  1  1  1  1  1  1  1  1  1
TYPE ASSIGNMENTS      1  1  1  1  1  1  1  1  1  1  1  1  1  1  1  1  1  1  1  1
TYPE ASSIGNMENTS      1  1  1  1  1  1  1  1  1  1  1  1  1  1  1  1  2  2  2  2
TYPE ASSIGNMENTS      2  2  2  2  2  3  3  3  3  3  3  3  3  3  4  4  4  4  4  4
TYPE ASSIGNMENTS      4  4  4  2  2  2  2  2  2  2  2  2  3  3  3  3  3  3  3  3
TYPE ASSIGNMENTS      3  4  4  4  4  4  4  4  4  4  2  2  2  2  2  2  2  2  2  3
TYPE ASSIGNMENTS      3  3  3  3  3  3  3  3  4  4  4  4  4  4  4  4  4  5  5  5
TYPE ASSIGNMENTS      5  6  6  6  6  7  7  7  7  8  8  8  8  9  9  9  9 10 10 10
TYPE ASSIGNMENTS     10  5  5  5  5  6  6  6  6  7  7  7  7  8  8  8  8  9  9  9
TYPE ASSIGNMENTS      9 10 10 10 10 11 11 11 12 12 12 13 13 13 17 17 17 14 14 14
TYPE ASSIGNMENTS     15 15 15 18 18 18 19 19 19 16 16 16 20 20 20  1  1  1  1  1
TYPE ASSIGNMENTS      1  1  1  1  1  1  1  1  1  1  1  1  1  1  1  1  1  1  1  1
TYPE ASSIGNMENTS      1  1  1  1  1  1  1  1  1  1  1  1  1  1  1  1  1  1  1  1
TYPE ASSIGNMENTS      1  1  1  1  1  1  1  1  1  1  1  1  1  1  1  1  1  1  1  1
TYPE ASSIGNMENTS      1  1  1  1  1  1  1  1  1  1  1  1  1  1  1  1  1  1  1  1
TYPE ASSIGNMENTS      2  2  2  2  2  2  2  2  2  2  2  2  3  3  3  3  3  3  3  3
TYPE ASSIGNMENTS      3  3  3  3  4  4  4  4  4  4  4  4  4  4  4  4  2  2  2  2
TYPE ASSIGNMENTS      2  2  2  2  2  2  2  2  3  3  3  3  3  3  3  3  3  3  3  3
TYPE ASSIGNMENTS      4  4  4  4  4  4  4  4  4  4  4  4  2  2  2  2  2  2  2  2
TYPE ASSIGNMENTS      2  2  2  2  3  3  3  3  3  3  3  3  3  3  3  3  4  4  4  4
TYPE ASSIGNMENTS      4  4  4  4  4  4  4  4  2  2  2  2  2  2  2  2  2  2  2  2
TYPE ASSIGNMENTS      3  3  3  3  3  3  3  3  3  3  3  3  4  4  4  4  4  4  4  4
TYPE ASSIGNMENTS      4  4  4  4  5  5  5  5  5  6  6  6  6  6  7  7  7  7  7  8
TYPE ASSIGNMENTS      8  8  8  8  9  9  9  9  9 10 10 10 10 10  5  5  5  5  5  6
TYPE ASSIGNMENTS      6  6  6  6  7  7  7  7  7  8  8  8  8  8  9  9  9  9  9 10
TYPE ASSIGNMENTS     10 10 10 10 11 11 11 11 12 12 12 12 13 13 13 13 17 17 17 17
TYPE ASSIGNMENTS     14 14 14 14 15 15 15 15 18 18 18 18 19 19 19 19 16 16 16 16
TYPE ASSIGNMENTS     20 20 20 20  1  1  1  1  1  1  1  1  1  1  1  1  1  1  1  1
TYPE ASSIGNMENTS      1  1  1  1  1  1  1  1  1  1  1  1  1  1  1  1  1  1  1  1
TYPE ASSIGNMENTS      1  1  1  1  1  1  1  1  1  1  1  1  1  1  1  1  1  1  1  1
TYPE ASSIGNMENTS      2  2  2  2  2  2  2  2  2  3  3  3  3  3  3  3  3  3  4  4
TYPE ASSIGNMENTS      4  4  4  4  4  4  4  2  2  2  2  2  2  2  2  2  3  3  3  3
TYPE ASSIGNMENTS      3  3  3  3  3  4  4  4  4  4  4  4  4  4  2  2  2  2  2  2
TYPE ASSIGNMENTS      2  2  2  3  3  3  3  3  3  3  3  3  4  4  4  4  4  4  4  4
TYPE ASSIGNMENTS      4  5  5  5  5  6  6  6  6  7  7  7  7  8  8  8  8  9  9  9
TYPE ASSIGNMENTS      9 10 10 10 10  5  5  5  5  6  6  6  6  7  7  7  7  8  8  8
TYPE ASSIGNMENTS      8  9  9  9  9 10 10 10 10 11 11 11 12 12 12 13 13 13 17 17
TYPE ASSIGNMENTS     17 14 14 14 15 15 15 18 18 18 19 19 19 16 16 16 20 20 20  1
TYPE ASSIGNMENTS      1  1  1  1  1  1  1  1  1  1  1  1  1  1  1  1  1  1  1  1
TYPE ASSIGNMENTS      1  1  1  1  1  1  1  1  1  1  1  1  1  1  1  1  1  1  1  1
TYPE ASSIGNMENTS      1  1  1  1  1  1  1  1  1  1  1  1  1  1  1  1  1  1  1  1
TYPE ASSIGNMENTS      1  1  1  1  1  1  1  1  1  1  1  1  1  1  1  1  1  1  1  1
TYPE ASSIGNMENTS      1  1  1  1  1  1  1  1  1  1  1  1  1  1  1  1  1  1  1  1
TYPE ASSIGNMENTS      1  1  1  1  1  1  1  1  1  1  1  1  1  1  1  1  1  1  1  1
TYPE ASSIGNMENTS      1  1  1  1  1  1  1  1  1  1  1  1  1  1  1  1  1  1  1  1
TYPE ASSIGNMENTS      1  1  1  1  1  1  1  1  1  1  1  1  1  1  1  1  1  1  1  1
TYPE ASSIGNMENTS      1  1  1  1  1  1  1  1  1  1  1  1  1  1  1  1  1  1  1  1
TYPE ASSIGNMENTS      1  1  1  1  1  1  1  1  1  1  1  1  1  1  1  1  1  1  1  1
TYPE ASSIGNMENTS      1  1  1  1  1  1  1  1  1  1  1  1  1  1  1  1  1  1  1  1
TYPE ASSIGNMENTS      1  1  1  1  1  1  1  1  1  1  1  1  1  2  2  2  2  2  2  2
TYPE ASSIGNMENTS      2  2  2  2  2  2  2  2  2  2  2  2  2  2  2  2  3  3  3  3
TYPE ASSIGNMENTS      3  3  3  3  3  3  3  3  3  3  3  3  3  3  3  3  3  3  3  4
TYPE ASSIGNMENTS      4  4  4  4  4  4  4  4  4  4  4  4  4  4  4  4  4  4  4  4
TYPE ASSIGNMENTS      4  4  2  2  2  2  2  2  2  2  2  2  2  2  2  2  2  2  2  2
TYPE ASSIGNMENTS      2  2  2  2  2  3  3  3  3  3  3  3  3  3  3  3  3  3  3  3
TYPE ASSIGNMENTS      3  3  3  3  3  3  3  3  4  4  4  4  4  4  4  4  4  4  4  4
TYPE ASSIGNMENTS      4  4  4  4  4  4  4  4  4  4  4  2  2  2  2  2  2  2  2  2
TYPE ASSIGNMENTS      2  2  2  2  2  2  2  2  2  2  2  2  2  2  3  3  3  3  3  3
TYPE ASSIGNMENTS      3  3  3  3  3  3  3  3  3  3  3  3  3  3  3  3  3  4  4  4
TYPE ASSIGNMENTS      4  4  4  4  4  4  4  4  4  4  4  4  4  4  4  4  4  4  4  4
TYPE ASSIGNMENTS      2  2  2  2  2  2  2  2  2  2  2  2  2  2  2  2  2  2  2  2
TYPE ASSIGNMENTS      2  2  2  3  3  3  3  3  3  3  3  3  3  3  3  3  3  3  3  3
TYPE ASSIGNMENTS      3  3  3  3  3  3  4  4  4  4  4  4  4  4  4  4  4  4  4  4
TYPE ASSIGNMENTS      4  4  4  4  4  4  4  4  4  2  2  2  2  2  2  2  2  2  2  2
TYPE ASSIGNMENTS      2  2  2  2  2  2  2  2  2  2  2  2  3  3  3  3  3  3  3  3
TYPE ASSIGNMENTS      3  3  3  3  3  3  3  3  3  3  3  3  3  3  3  4  4  4  4  4
TYPE ASSIGNMENTS      4  4  4  4  4  4  4  4  4  4  4  4  4  4  4  4  4  4  2  2
TYPE ASSIGNMENTS      2  2  2  2  2  2  2  2  2  2  2  2  2  2  2  2  2  2  2  2
TYPE ASSIGNMENTS      2  3  3  3  3  3  3  3  3  3  3  3  3  3  3  3  3  3  3  3
TYPE ASSIGNMENTS      3  3  3  3  4  4  4  4  4  4  4  4  4  4  4  4  4  4  4  4
TYPE ASSIGNMENTS      4  4  4  4  4  4  4  2  2  2  2  2  2  2  2  2  2  2  2  2
TYPE ASSIGNMENTS      2  2  2  2  2  2  2  2  2  2  3  3  3  3  3  3  3  3  3  3
TYPE ASSIGNMENTS      3  3  3  3  3  3  3  3  3  3  3  3  3  4  4  4  4  4  4  4
TYPE ASSIGNMENTS      4  4  4  4  4  4  4  4  4  4  4  4  4  4  4  4  2  2  2  2
TYPE ASSIGNMENTS      2  2  2  2  2  2  2  2  2  2  2  2  2  2  2  2  2  2  2  3
TYPE ASSIGNMENTS      3  3  3  3  3  3  3  3  3  3  3  3  3  3  3  3  3  3  3  3
TYPE ASSIGNMENTS      3  3  4  4  4  4  4  4  4  4  4  4  4  4  4  4  4  4  4  4
TYPE ASSIGNMENTS      4  4  4  4  4  5  5  5  5  5  5  5  5  5  5  5  5  5  5  5
TYPE ASSIGNMENTS      5  5  6  6  6  6  6  6  6  6  6  6  6  6  6  6  6  6  6  7
TYPE ASSIGNMENTS      7  7  7  7  7  7  7  7  7  7  7  7  7  7  7  7  8  8  8  8
TYPE ASSIGNMENTS      8  8  8  8  8  8  8  8  8  8  8  8  8  9  9  9  9  9  9  9
TYPE ASSIGNMENTS      9  9  9  9  9  9  9  9  9  9 10 10 10 10 10 10 10 10 10 10
TYPE ASSIGNMENTS     10 10 10 10 10 10 10  5  5  5  5  5  5  5  5  5  5  5  5  5
TYPE ASSIGNMENTS      5  5  5  5  6  6  6  6  6  6  6  6  6  6  6  6  6  6  6  6
TYPE ASSIGNMENTS      6  7  7  7  7  7  7  7  7  7  7  7  7  7  7  7  7  7  8  8
TYPE ASSIGNMENTS      8  8  8  8  8  8  8  8  8  8  8  8  8  8  8  9  9  9  9  9
TYPE ASSIGNMENTS      9  9  9  9  9  9  9  9  9  9  9  9 10 10 10 10 10 10 10 10
TYPE ASSIGNMENTS     10 10 10 10 10 10 10 10 10  5  5  5  5  5  5  5  5  5  5  5
TYPE ASSIGNMENTS      5  5  5  5  5  5  6  6  6  6  6  6  6  6  6  6  6  6  6  6
TYPE ASSIGNMENTS      6  6  6  7  7  7  7  7  7  7  7  7  7  7  7  7  7  7  7  7
TYPE ASSIGNMENTS      8  8  8  8  8  8  8  8  8  8  8  8  8  8  8  8  8  9  9  9
TYPE ASSIGNMENTS      9  9  9  9  9  9  9  9  9  9  9  9  9  9 10 10 10 10 10 10
TYPE ASSIGNMENTS     10 10 10 10 10 10 10 10 10 10 10  5  5  5  5  5  5  5  5  5
TYPE ASSIGNMENTS      5  5  5  5  5  5  5  5  6  6  6  6  6  6  6  6  6  6  6  6
TYPE ASSIGNMENTS      6  6  6  6  6  7  7  7  7  7  7  7  7  7  7  7  7  7  7  7
TYPE ASSIGNMENTS      7  7  8  8  8  8  8  8  8  8  8  8  8  8  8  8  8  8  8  9
TYPE ASSIGNMENTS      9  9  9  9  9  9  9  9  9  9  9  9  9  9  9  9 10 10 10 10
TYPE ASSIGNMENTS     10 10 10 10 10 10 10 10 10 10 10 10 10  5  5  5  5  5  5  5
TYPE ASSIGNMENTS      5  5  5  5  5  5  5  5  5  5  6  6  6  6  6  6  6  6  6  6
TYPE ASSIGNMENTS      6  6  6  6  6  6  6  7  7  7  7  7  7  7  7  7  7  7  7  7
TYPE ASSIGNMENTS      7  7  7  7  8  8  8  8  8  8  8  8  8  8  8  8  8  8  8  8
TYPE ASSIGNMENTS      8  9  9  9  9  9  9  9  9  9  9  9  9  9  9  9  9  9 10 10
TYPE ASSIGNMENTS     10 10 10 10 10 10 10 10 10 10 10 10 10 10 10  5  5  5  5  5
TYPE ASSIGNMENTS      5  5  5  5  5  5  5  5  5  5  5  5  6  6  6  6  6  6  6  6
TYPE ASSIGNMENTS      6  6  6  6  6  6  6  6  6  7  7  7  7  7  7  7  7  7  7  7
TYPE ASSIGNMENTS      7  7  7  7  7  7  8  8  8  8  8  8  8  8  8  8  8  8  8  8
TYPE ASSIGNMENTS      8  8  8  9  9  9  9  9  9  9  9  9  9  9  9  9  9  9  9  9
TYPE ASSIGNMENTS     10 10 10 10 10 10 10 10 10 10 10 10 10 10 10 10 10 11 11 11
TYPE ASSIGNMENTS     11 11 11 11 11 11 11 11 11 11 12 12 12 12 12 12 12 12 12 12
TYPE ASSIGNMENTS     12 12 12 13 13 13 13 13 13 13 13 13 13 13 13 13 17 17 17 17
TYPE ASSIGNMENTS     17 17 17 17 17 17 17 17 17 14 14 14 14 14 14 14 14 14 14 14
TYPE ASSIGNMENTS     14 14 15 15 15 15 15 15 15 15 15 15 15 15 15 18 18 18 18 18
TYPE ASSIGNMENTS     18 18 18 18 18 18 18 18 19 19 19 19 19 19 19 19 19 19 19 19
TYPE ASSIGNMENTS     19 16 16 16 16 16 16 16 16 16 16 16 16 16 20 20 20 20 20 20
TYPE ASSIGNMENTS     20 20 20 20 20 20 20 11 11 11 11 11 11 11 11 11 11 11 11 11
TYPE ASSIGNMENTS     12 12 12 12 12 12 12 12 12 12 12 12 12 13 13 13 13 13 13 13
TYPE ASSIGNMENTS     13 13 13 13 13 13 17 17 17 17 17 17 17 17 17 17 17 17 17 14
TYPE ASSIGNMENTS     14 14 14 14 14 14 14 14 14 14 14 14 15 15 15 15 15 15 15 15
TYPE ASSIGNMENTS     15 15 15 15 15 18 18 18 18 18 18 18 18 18 18 18 18 18 19 19
TYPE ASSIGNMENTS     19 19 19 19 19 19 19 19 19 19 19 16 16 16 16 16 16 16 16 16
TYPE ASSIGNMENTS     16 16 16 16 20 20 20 20 20 20 20 20 20 20 20 20 20 11 11 11
TYPE ASSIGNMENTS     11 11 11 11 11 11 11 11 11 11 12 12 12 12 12 12 12 12 12 12
TYPE ASSIGNMENTS     12 12 12 13 13 13 13 13 13 13 13 13 13 13 13 13 17 17 17 17
TYPE ASSIGNMENTS     17 17 17 17 17 17 17 17 17 14 14 14 14 14 14 14 14 14 14 14
TYPE ASSIGNMENTS     14 14 15 15 15 15 15 15 15 15 15 15 15 15 15 18 18 18 18 18
TYPE ASSIGNMENTS     18 18 18 18 18 18 18 18 19 19 19 19 19 19 19 19 19 19 19 19
TYPE ASSIGNMENTS     19 16 16 16 16 16 16 16 16 16 16 16 16 16 20 20 20 20 20 20
TYPE ASSIGNMENTS     20 20 20 20 20 20 20 11 11 11 11 11 11 11 11 11 11 11 11 11
TYPE ASSIGNMENTS     12 12 12 12 12 12 12 12 12 12 12 12 12 13 13 13 13 13 13 13
TYPE ASSIGNMENTS     13 13 13 13 13 13 17 17 17 17 17 17 17 17 17 17 17 17 17 14
TYPE ASSIGNMENTS     14 14 14 14 14 14 14 14 14 14 14 14 15 15 15 15 15 15 15 15
TYPE ASSIGNMENTS     15 15 15 15 15 18 18 18 18 18 18 18 18 18 18 18 18 18 19 19
TYPE ASSIGNMENTS     19 19 19 19 19 19 19 19 19 19 19 16 16 16 16 16 16 16 16 16
TYPE ASSIGNMENTS     16 16 16 16 20 20 20 20 20 20 20 20 20 20 20 20 20 21 21 21
TYPE ASSIGNMENTS     21 21 22 22 22 22 22 23 23 23 23 23 24 24 24 24 24 25 25 25
TYPE ASSIGNMENTS     25 25 26 26 26 26 26 27 27 27 27 27 28 28 28 28 28 29 29 29
TYPE ASSIGNMENTS     29 29 30 30 30 30 30 31 31 31 31 31 32 32 32 32 32 33 33 33
TYPE ASSIGNMENTS     33 33 34 34 34 34 34 35 35 35 35 35 21 21 21 21 21 22 22 22
TYPE ASSIGNMENTS     22 22 23 23 23 23 23 24 24 24 24 24 25 25 25 25 25 26 26 26
TYPE ASSIGNMENTS     26 26 27 27 27 27 27 28 28 28 28 28 29 29 29 29 29 30 30 30
TYPE ASSIGNMENTS     30 30 31 31 31 31 31 32 32 32 32 32 33 33 33 33 33 34 34 34
TYPE ASSIGNMENTS     34 34 35 35 35 35 35  1  1  1  1  1  1  1  1  1  1  1  1  1
TYPE ASSIGNMENTS      1  1  1  1  1  1  1  1  1  1  1  1  1  1  1  1  1  1  1  1
TYPE ASSIGNMENTS      1  1  1  1  1  1  1  1  1  1  1  1  1  1  1  1  1  1  1  1
TYPE ASSIGNMENTS      1  1  1  2  2  2  2  2  2  2  2  2  3  3  3  3  3  3  3  3
TYPE ASSIGNMENTS      3  4  4  4  4  4  4  4  4  4  2  2  2  2  2  2  2  2  2  3
TYPE ASSIGNMENTS      3  3  3  3  3  3  3  3  4  4  4  4  4  4  4  4  4  2  2  2
TYPE ASSIGNMENTS      2  2  2  2  2  2  3  3  3  3  3  3  3  3  3  4  4  4  4  4
TYPE ASSIGNMENTS      4  4  4  4  5  5  5  5  6  6  6  6  7  7  7  7  8  8  8  8
TYPE ASSIGNMENTS      9  9  9  9 10 10 10 10  5  5  5  5  6  6  6  6  7  7  7  7
TYPE ASSIGNMENTS      8  8  8  8  9  9  9  9 10 10 10 10 11 11 11 12 12 12 13 13
TYPE ASSIGNMENTS     13 17 17 17 14 14 14 15 15 15 18 18 18 19 19 19 16 16 16 20