 operating system is UNIX !

 force (u-1-2.local) : TURBOMOLE V7.2 ( 21454 ) 4 Oct 2017 at 12:24:43
 Copyright (C) 2017 TURBOMOLE GmbH, Karlsruhe


    2018-02-01 21:47:14.081 



                             T U R B O M O L E   

                          a o f o r c e - program

                        using direct algorithms for

                       SCF level calculations of
                         * harmonic force constants
                         * hyperpolarizabilities
                         * IR and RAMAN intensities
                         * VCD intensities

                       DFT level calculations of
                         * harmonic force constants
                         * IR intensities
                                                   
       Stephan Boecker, Peter Deglmann, Filipp Furche and Marco Haeser
                          Quantum Chemistry Group
                          Universitaet  Karlsruhe
                                   Germany

 
 
 
 
     References :
 
       RI-J implementation:
         Peter Deglmann, Klaus May, Filipp Furche, Reinhart Ahlrichs
                 Chem. Phys. Lett. 384:103 (2004)
 
       Efficiency, technical details:
         Peter Deglmann, Filipp Furche, Reinhart Ahlrichs
                 Chem. Phys. Lett. 362:511 (2002)
 
       Search of lowest eigenvalues by iterative diagonalization:
         Peter Deglmann, Filipp Furche
                 J. Chem. Phys. 117:9535 (2002)
 
       Vibrational circular dichroism implementation:
        Kevin Reiter, Michael Kuehn, Florian Weigend
                 J. Chem. Phys. 146:054102 (2017)  
 
 


              +--------------------------------------------------+
              | Atomic coordinate, charge and isotop information |
              +--------------------------------------------------+

                    atomic coordinates            atom    charge  isotop
          1.80412677    4.28359474    2.06505115    c      6.000     0
          3.23739117    1.16767291    1.93686037    s     16.000     0
          1.16882018   -0.47043549    3.13057497    o      8.000     0
         -0.66899312   -2.12284471   -0.91214187    pu    94.000     0
         -2.59394681   -3.74256087   -5.00280684    o      8.000     0
         -4.76806978   -5.21460479   -3.79765040    s     16.000     0
         -4.62860006   -4.83764517   -0.93672766    o      8.000     0
          3.19351616    0.62593060   -0.90764767    o      8.000     0
          1.16781862   -4.85808005   -0.73281247    o      8.000     0
         -2.52047901    0.61604838   -1.09791795    o      8.000     0
          3.05077507    5.60947704    1.09837560    h      1.000     0
         -0.01703841    4.13482094    1.11233096    h      1.000     0
          1.57467921    4.80862649    4.04451181    h      1.000     0
 
       center of nuclear mass  :   -0.60454946   -1.87106693   -0.81084261
       center of nuclear charge:   -0.57730056   -1.77802055   -0.77184236

              +--------------------------------------------------+
              |               basis set information              |
              +--------------------------------------------------+

              we will work with the 1s 3p 5d 7f 9g ... basis set
              ...i.e. with spherical basis functions...

   type   atoms  prim   cont   basis
   ---------------------------------------------------------------------------
    c        1     66     46   aug-cc-pVTZ   [5s4p3d2f|19s6p3d2f]
    s        2    122     50   aug-cc-pVTZ   [6s5p3d2f|42s17p3d2f]
    o        6     66     46   aug-cc-pVTZ   [5s4p3d2f|19s6p3d2f]
    pu       1    213    117   ecp-60-SVP(6g)   [10s9p5d4f3g|14s13p10d8f6g]
    h        3     25     23   aug-cc-pVTZ   [4s3p2d|6s3p2d]
   ---------------------------------------------------------------------------
   total:   13    994    608
   ---------------------------------------------------------------------------

   total number of primitive shells          :  186
   total number of contracted shells         :  188
   total number of cartesian basis functions :  730
   total number of SCF-basis functions       :  608


 symmetry group of the molecule :   c1 

 the group has the following generators :
   c1(z)

    1 symmetry operations found

 there are 1 real representations :   a   

 maximum number of shells which are related by symmetry :  1


 determining totally symmetric integral contributions 
    - equivalent to irreducible tensor elements - 
 which can be formed within each triple of representations :

             representation triple      contributions

              a     a     a               1

 reading cartesian hessian from $hessian,
 file=<hessian>


 actual cartesian coordinates & gradients will be read from $grad 

            ----------------------------
            actual cartesian coordinates
            ----------------------------
    1 c       1.80378743339797      4.28342728887570      2.06480442364066
    2 s       3.23768695857642      1.16778339325104      1.93680719080642
    3 o       1.16950313710467     -0.47073050452414      3.13069088820360
    4 pu     -0.66884562125874     -2.12281088791490     -0.91191765207609
    5 o      -2.59386205554747     -3.74234365293148     -5.00269786860897
    6 s      -4.76784906079493     -5.21455915866349     -3.79752598884349
    7 o      -4.62889992030637     -4.83686408374475     -0.93666570737448
    8 o       3.19382831190446      0.62581100167849     -0.90764895270227
    9 o       1.16749988756427     -4.85838047132810     -0.73304941786200
   10 o      -2.51991806677858      0.61639062621907     -1.09720359946510
   11 h       3.05041493353068      5.60961190395277      1.09850789131836
   12 h      -0.01712920167723      4.13434949355511      1.11166056745272
   13 h       1.57378326428489      4.80831505157461      4.04423822551050

              --------------------------
              actual cartesian gradients
              --------------------------
    1 c       0.00001052565496     -0.00000344434346      0.00000206496070
    2 s       0.00000642967195     -0.00000184803775     -0.00000669106886
    3 o      -0.00000383797490     -0.00001004156717     -0.00000655693814
    4 pu     -0.00001078511289     -0.00002321011881      0.00000921529700
    5 o      -0.00001527871233     -0.00000510808388     -0.00001288756394
    6 s       0.00000412685669      0.00000937433505     -0.00000695767647
    7 o       0.00000575869212      0.00002247849543     -0.00000904599534
    8 o       0.00000834459577      0.00001915988598      0.00001751718140
    9 o      -0.00002761662772      0.00001088902252     -0.00001486700450
   10 o       0.00002103417376     -0.00000825332054      0.00001856895655
   11 h       0.00000052447780      0.00000205594328      0.00000762463269
   12 h       0.00000200342930     -0.00000617567084     -0.00000004780558
   13 h      -0.00000122908328     -0.00000587657613      0.00000206298846

 dipole moment read from <control>

                -----------------------
                permanent dipole moment
                -----------------------
             x              y             z
          1.7803957      6.6350174      2.6911871      (debyes)

 dipole derivatives read from <dipgrad>

        ----------------------------------------------------
        cartesian dipole derivative matrix (debyes/angstrom)
        ----------------------------------------------------

  atom       1 c                              2 s 
            x          y          z          x          y          z
 
  x     -0.771191   1.586624   0.083387   4.264832   1.535811  -0.556624
  y      0.513137  -2.109596  -0.386815   1.178202   6.666860   0.720929
  z     -0.320876   0.145951   0.165580  -0.664911   0.887758   6.135056

  atom       3 o                              4 pu
            x          y          z          x          y          z
 
  x     -4.858895  -3.720615   0.160444  12.402846  -1.359190   3.477016
  y     -2.202882  -4.838276  -0.036200  -1.594574  16.016591   2.246211
  z     -0.476338  -0.120415  -4.243856   3.397799   2.342118   7.124824

  atom       5 o                              6 s 
            x          y          z          x          y          z
 
  x     -4.901915  -2.625480   0.791573   3.456482   2.221238  -0.943338
  y     -2.632331  -3.147262   0.375189   2.171295   1.908710  -0.139763
  z     -0.361312  -0.555797  -4.059923  -0.933224  -0.114189   5.981782

  atom       7 o                              8 o 
            x          y          z          x          y          z
 
  x     -3.450849  -1.781840  -1.313041  -3.838163  -1.896309  -1.274107
  y     -1.548166  -2.508922  -1.375480  -1.327357  -3.681483  -1.424145
  z     -0.060793  -0.524765  -6.096832   0.046843  -2.291536  -6.398836

  atom       9 o                             10 o 
            x          y          z          x          y          z
 
  x     -3.816601   3.198636  -0.225444  -3.852154   2.821319  -0.380878
  y      2.957773  -6.726397   0.092741   2.612161  -6.422956   0.012600
  z     -0.290140   0.218274  -1.715482  -0.440737   0.107735  -1.754153

  atom      11 h                             12 h 
            x          y          z          x          y          z
 
  x     -0.003819  -0.424744   0.231949   0.117306   0.361079  -0.000374
  y     -0.222535  -0.158586   0.083735   0.053360   0.214152   0.013730
  z      0.276039   0.320034   0.192402  -0.083674   0.162830   0.309025

  atom      13 h 
            x          y          z
 
  x      0.409696   0.091990   0.036319
  y      0.012714   0.057965  -0.106195
  z      0.054754  -0.424421  -0.485792
 
!!!!!!!!!!!!!!!!!!!!!!!!!!!!!!!!!!!!!!!!!!!!!!!!!!!!!!
!!                                                  !!
!! WARNING:                                         !!
!! geometry on $grad differs from that on $coord:   !!
!! mead absolute deviation:           0.8388E-03    !!
!!                                                  !!
!!!!!!!!!!!!!!!!!!!!!!!!!!!!!!!!!!!!!!!!!!!!!!!!!!!!!!
 difference between coordinates :

              1             2             3             4             5
 
    1    -0.00033934    0.00029579    0.00068295    0.00014750    0.00008475
    2    -0.00016745    0.00011048   -0.00029502    0.00003383    0.00021722
    3    -0.00024673   -0.00005318    0.00011592    0.00022422    0.00010897

              6             7             8             9            10
 
    1     0.00022071   -0.00029986    0.00031215   -0.00031873    0.00056094
    2     0.00004563    0.00078109   -0.00011960   -0.00030042    0.00034225
    3     0.00012441    0.00006195   -0.00000128   -0.00023694    0.00071435

             11            12            13
 
    1    -0.00036014   -0.00009079   -0.00089595
    2     0.00013487   -0.00047145   -0.00031143
    3     0.00013229   -0.00067040   -0.00027358

             -----------------------------------
             rotational and vibrational analysis
             -----------------------------------


            ==============================================================
            ATOMIC WEIGHTS (average over the natural occurance of isotops)
            ==============================================================
            ('*' denotes special isotop !)
              1     c                12.01115
              2     s                32.06400
              3     o                15.99940
              4     pu              244.00000
              5     o                15.99940
              6     s                32.06400
              7     o                15.99940
              8     o                15.99940
              9     o                15.99940
             10     o                15.99940
             11     h                 1.00797
             12     h                 1.00797
             13     h                 1.00797

          -------------------------------------------------
          CARTESIAN FORCE CONSTANT MATRIX (hartree/bohr**2)
         (translational & rotational space projected out)
          -------------------------------------------------

   ATOM              1 c                           2 s 
                  dx        dy        dz        dx        dy        dz
   1 c     dx  0.5283398
           dy  0.0911812 0.3801329
           dz  0.0039189-0.0051484 0.5669430
   2 s     dx -0.0909813 0.0283053-0.0191909 0.4308527
           dy  0.0696246-0.0962799 0.0186887 0.0975427 0.3508621
           dz -0.0084542-0.0019241-0.0419416-0.0192000 0.0027962 0.5136787
   3 o     dx  0.0117288-0.0010271 0.0052716-0.2422783-0.1458477 0.0846606
           dy -0.0310082-0.0226461 0.0124731-0.1241799-0.1544548 0.0672536
           dz  0.0045203 0.0056494 0.0008306 0.0681290 0.0568700-0.1098511
   4 pu    dx -0.0008761 0.0021271 0.0018323-0.0086608-0.0220790-0.0226495
           dy -0.0010854 0.0010316-0.0000977-0.0143681-0.0041580-0.0145972
           dz  0.0011455 0.0021465-0.0026965-0.0206866-0.0184527 0.0099486
   5 o     dx -0.0000109-0.0002171-0.0002591 0.0004195 0.0014440 0.0008834
           dy -0.0000203-0.0003515 0.0001935 0.0008961 0.0007790 0.0002016
           dz  0.0000447-0.0002973 0.0000480 0.0015247 0.0017367-0.0002669
   6 s     dx -0.0001712 0.0004324-0.0000683-0.0007979-0.0005871-0.0007071
           dy  0.0001104 0.0000084 0.0000175-0.0000021-0.0008849-0.0003726
           dz  0.0001045 0.0002989-0.0000753-0.0002862-0.0006375-0.0004017
   7 o     dx  0.0001537-0.0003578 0.0000489 0.0005460 0.0016906 0.0017062
           dy  0.0002622-0.0002083-0.0003221 0.0005354 0.0006504 0.0015162
           dz  0.0001011-0.0002435 0.0002221 0.0002470 0.0005605 0.0001469
   8 o     dx  0.0102644 0.0043598 0.0158537-0.0754384-0.0168674-0.0391108
           dy -0.0057026-0.0056026-0.0337726-0.0048565-0.0691304-0.0580761
           dz  0.0056980-0.0068840-0.0143644-0.0138014-0.0644048-0.3630096
   9 o     dx  0.0007604 0.0000772-0.0004937-0.0019535-0.0001171 0.0007925
           dy  0.0006094-0.0005124-0.0003297 0.0032996 0.0014227 0.0029866
           dz -0.0005548-0.0006133 0.0014974 0.0018245 0.0011067-0.0024599
  10 o     dx  0.0004765-0.0014660 0.0001163 0.0010647 0.0054560 0.0035915
           dy -0.0007377 0.0004505 0.0000732-0.0014982-0.0084313-0.0021510
           dz  0.0004222-0.0005642-0.0002165 0.0019256 0.0012893-0.0019383
  11 h     dx -0.1458536-0.1073800 0.0776812 0.0056114 0.0041202-0.0046527
           dy -0.1114018-0.1571139 0.0844769-0.0175075-0.0092399 0.0105646
           dz  0.0787381 0.0831765-0.1055318-0.0005772-0.0013171-0.0020095
  12 h     dx -0.2638653-0.0226367-0.1151691-0.0159742 0.0061507-0.0067374
           dy -0.0178959-0.0396108-0.0072329 0.0332459-0.0103222 0.0136860
           dz -0.1142240-0.0096485-0.1051101 0.0004327 0.0002165 0.0011124
  13 h     dx -0.0499651 0.0066018 0.0304583-0.0024099-0.0005305 0.0098773
           dy  0.0060640-0.0592980-0.0690195-0.0014128-0.0008126-0.0218838
           dz  0.0285396-0.0659481-0.2996048-0.0003413 0.0015475-0.0030081

   ATOM              3 o                           4 pu
                  dx        dy        dz        dx        dy        dz
   3 o     dx  0.2187566
           dy  0.1478833 0.1776447
           dz -0.1020451-0.0819677 0.1508481
   4 pu    dx -0.0107742 0.0046249-0.0042773 0.4432194
           dy  0.0024063-0.0163360-0.0027528-0.3575486 0.7506133
           dz  0.0025585 0.0012618-0.0269544 0.0620502-0.0102195 0.1558262
   5 o     dx -0.0021048-0.0017943-0.0025912-0.0113930 0.0037875 0.0034114
           dy -0.0014983-0.0016604-0.0020632 0.0031142-0.0132603 0.0014371
           dz -0.0026932-0.0023253-0.0024357-0.0022617-0.0018098-0.0221653
   6 s     dx  0.0007349 0.0008926 0.0014499-0.0104819-0.0145995-0.0185225
           dy  0.0006662 0.0005658 0.0010368-0.0146203-0.0035845-0.0138409
           dz  0.0008768 0.0001668-0.0003748-0.0191591-0.0137225 0.0084589
   7 o     dx -0.0009396-0.0010174-0.0017580-0.0179640-0.0012276 0.0019381
           dy -0.0007850-0.0002344-0.0009633-0.0009521-0.0157155 0.0019932
           dz -0.0014921-0.0008754 0.0010272 0.0078294 0.0055409-0.0147066
   8 o     dx  0.0181898 0.0063340 0.0369268-0.0210585-0.0027119 0.0022474
           dy  0.0030455 0.0134513 0.0235175-0.0015796-0.0196125 0.0018844
           dz  0.0174626 0.0064909-0.0159222 0.0103788 0.0040677-0.0131056
   9 o     dx  0.0056734-0.0004609 0.0042201-0.1839645 0.1946617-0.0178116
           dy -0.0054879-0.0027708-0.0064120 0.1966877-0.3386702 0.0182548
           dz  0.0020984-0.0051686 0.0015513-0.0170945 0.0175669-0.0489625
  10 o     dx -0.0029659-0.0030233-0.0047866-0.1773980 0.1903516-0.0161502
           dy  0.0050822 0.0103147 0.0053272 0.1863937-0.3357593 0.0146286
           dz -0.0061468 0.0031065-0.0007260-0.0172803 0.0166917-0.0459404
  11 h     dx  0.0013259 0.0043300-0.0002169-0.0006354 0.0005733-0.0001210
           dy  0.0016243-0.0092791 0.0012207 0.0004847-0.0009253 0.0012372
           dz -0.0001546-0.0003378 0.0013614-0.0002555 0.0004184-0.0000552
  12 h     dx  0.0030214-0.0019266 0.0007284 0.0014181-0.0008558 0.0001595
           dy -0.0053821 0.0044044-0.0016939 0.0021483-0.0037043 0.0000120
           dz  0.0004860-0.0000162-0.0008261 0.0006157-0.0016149 0.0005642
  13 h     dx -0.0003682-0.0006541-0.0002993-0.0014313 0.0006165-0.0002185
           dy -0.0006798 0.0010008 0.0022313 0.0011990 0.0000811-0.0003425
           dz -0.0008828-0.0000617 0.0014716 0.0002715 0.0005290-0.0002113

   ATOM              5 o                           6 s 
                  dx        dy        dz        dx        dy        dz
   5 o     dx  0.2502334
           dy  0.1608377 0.1224721
           dz -0.1220012-0.0773165 0.1489270
   6 s     dx -0.2541025-0.1712999 0.0931461 0.3126164
           dy -0.1699867-0.1244511 0.0586973 0.2149336 0.1651711
           dz  0.1067721 0.0687521-0.1092936-0.0538144 0.0081332 0.5123941
   7 o     dx  0.0140288 0.0108159 0.0349093-0.0482015-0.0336118-0.0388010
           dy  0.0092328 0.0122580 0.0234952-0.0322445-0.0356275-0.0666826
           dz  0.0190268 0.0117043-0.0164819-0.0249066-0.0563355-0.4072818
   8 o     dx -0.0005514-0.0005866-0.0017968 0.0007065 0.0006787 0.0014066
           dy -0.0008247-0.0001673-0.0012360 0.0004330 0.0003801 0.0013835
           dz -0.0011796-0.0007374 0.0007471 0.0003651 0.0002667-0.0000303
   9 o     dx -0.0022437-0.0017125-0.0042635 0.0009310 0.0019868 0.0024067
           dy  0.0022087 0.0067910 0.0048834-0.0008088-0.0018973-0.0001796
           dz -0.0056545 0.0032494-0.0002485 0.0015630 0.0012900-0.0016101
  10 o     dx  0.0054459-0.0004380 0.0033950-0.0015056-0.0000881 0.0008446
           dy -0.0046352-0.0024521-0.0058278 0.0030766 0.0002079 0.0026023
           dz  0.0015780-0.0055382 0.0011690 0.0015169 0.0012013-0.0018307
  11 h     dx -0.0000000-0.0000336-0.0000660-0.0000583 0.0000971 0.0000405
           dy -0.0000446-0.0000811-0.0000983-0.0002051 0.0001894 0.0000586
           dz -0.0000060 0.0000497 0.0000373-0.0000518 0.0000077 0.0000949
  12 h     dx  0.0000249 0.0000597 0.0001023-0.0000591 0.0000831-0.0000070
           dy  0.0001162 0.0001064 0.0001456-0.0000341-0.0001812-0.0001402
           dz  0.0001588 0.0001058 0.0000074 0.0000512-0.0001981-0.0000755
  13 h     dx  0.0002537-0.0001344-0.0000397 0.0003892-0.0002470-0.0003842
           dy -0.0001243 0.0000174-0.0000472 0.0000109 0.0001040-0.0000329
           dz -0.0001390-0.0000383-0.0000438-0.0000217 0.0000967 0.0000260

   ATOM              7 o                           8 o 
                  dx        dy        dz        dx        dy        dz
   7 o     dx  0.0551294
           dy  0.0299738 0.0378698
           dz  0.0030694 0.0425953 0.4335178
   8 o     dx -0.0037185-0.0025323-0.0015444 0.0685204
           dy -0.0028398-0.0023812-0.0012335 0.0153144 0.0780602
           dz -0.0019495-0.0012889-0.0002258-0.0160306 0.0678621 0.4005767
   9 o     dx -0.0065102-0.0004625-0.0027026 0.0084002-0.0022690 0.0005780
           dy  0.0025003 0.0087827 0.0005948-0.0068898-0.0051647-0.0028247
           dz  0.0004678-0.0010803 0.0019904 0.0002571 0.0007874 0.0012939
  10 o     dx  0.0075065-0.0031053 0.0005958-0.0078501-0.0016666-0.0040149
           dy -0.0058149-0.0055936-0.0022935 0.0031241 0.0118279 0.0036258
           dz  0.0002960 0.0008334 0.0018175 0.0009091-0.0006706 0.0028946
  11 h     dx -0.0000948 0.0000185-0.0000672 0.0001398-0.0004108-0.0009853
           dy -0.0002009 0.0001174-0.0000923 0.0014059 0.0020389-0.0013300
           dz  0.0000374-0.0000014 0.0000567-0.0000145-0.0001483-0.0001028
  12 h     dx  0.0000167 0.0001253 0.0000530 0.0026988-0.0025626 0.0015223
           dy  0.0001583 0.0001409 0.0000816-0.0056121 0.0040816-0.0010685
           dz  0.0001213-0.0000210-0.0001016-0.0000427 0.0005852-0.0001449
  13 h     dx  0.0000475-0.0000661-0.0002098-0.0003030 0.0039192 0.0019565
           dy -0.0000688-0.0000587-0.0000038 0.0039832-0.0077814-0.0037749
           dz -0.0000859-0.0000738 0.0000193 0.0009392-0.0008831 0.0013932

   ATOM              9 o                          10 o 
                  dx        dy        dz        dx        dy        dz
   9 o     dx  0.1677523
           dy -0.1949046 0.3243185
           dz  0.0180751-0.0166532 0.0324383
  10 o     dx  0.0110285 0.0027291-0.0011460 0.1658628
           dy  0.0037572 0.0075536-0.0002047-0.1872827 0.3187532
           dz -0.0005811-0.0004172 0.0142323 0.0182587-0.0162373 0.0318032
  11 h     dx  0.0001049-0.0001704 0.0000347 0.0001900-0.0009399-0.0004892
           dy  0.0000086-0.0003513-0.0000996-0.0000903 0.0004958-0.0001317
           dz  0.0000286 0.0000396 0.0001083 0.0000892-0.0003321-0.0002904
  12 h     dx -0.0001683 0.0001417-0.0000656-0.0016483 0.0005855-0.0002627
           dy -0.0005415 0.0006810-0.0001329-0.0011524 0.0023321 0.0003101
           dz -0.0002739 0.0002869 0.0000991-0.0007512 0.0011628-0.0009619
  13 h     dx  0.0001894 0.0000848 0.0001948-0.0002069-0.0011108-0.0001465
           dy -0.0000234-0.0001829-0.0000477-0.0002240 0.0003008 0.0001268
           dz  0.0000255-0.0002296 0.0000700-0.0000422-0.0003735-0.0000124

   ATOM             11 h                          12 h 
                  dx        dy        dz        dx        dy        dz
  11 h     dx  0.1535860
           dy  0.1183417 0.1681001
           dz -0.0861221-0.0912220 0.1101301
  12 h     dx -0.0119998 0.0010643-0.0076061 0.2796710
           dy -0.0171041-0.0004797-0.0105703 0.0193606 0.0437814
           dz  0.0149963-0.0001059 0.0074777 0.1230005 0.0094272 0.1085548
  13 h     dx -0.0023160 0.0065207 0.0158944 0.0068640-0.0073071-0.0245707
           dy -0.0014419 0.0065289 0.0202370 0.0004108-0.0012296-0.0001798
           dz -0.0000325-0.0044782-0.0112767 0.0042819-0.0028240-0.0105955

   ATOM             13 h 
                  dx        dy        dz
  13 h     dx  0.0492566
           dy -0.0076930 0.0613305
           dz -0.0325125 0.0727370 0.3217725
 

   *** projected hessian written onto $hessian (projected), file=<hessian> ***

 dipole moment in principle axis system (a.u.) :
    -1.3718470039     2.5580996174    -0.0014839437
 norm :   2.90272975951546     

 rotational constants b for rotations around axis of inertia
 and optical intensities for (1 <-- 0) transition

   b   :     0.0138358045     0.0701141366     0.0133707341   (cm**(-1))
   b   :         414.7870        2101.9689         400.8445     (MHz)
  int. :     1.8819642020     6.5438736527     0.0000022021     (a.u.)

   x   :     0.6511277541     0.6227514126    -0.4338355979
   y   :    -0.7492802262     0.6184856072    -0.2367587304
   z   :     0.1208792394     0.4792246153     0.8693284636

   ***  normal modes written onto $vibrational normal modes, file=<control>  ***

   ***  vibrational spectroscopic data written onto$vibrational spectrum   
        file=<control>  ***

          ---------------------------------------------------
          NORMAL MODES and VIBRATIONAL FREQUENCIES (cm**(-1))
          ---------------------------------------------------

 imaginary wave numbers indicate a negative curvature of the energy surface.
 zero frequency modes have no physical meaning except being generators of
 translations and rotations. each vibrational normal mode - given in terms of
 cartesian displacement vectors of all atoms - has been normalized to unity.
 to obtain mass-weigthed normal coordinates in a.u. divide the tabulated
 modes by sqrt(reduced mass * 1822.88853).
 band intensities or cross sections refer to independent non-degenerate normal
 modes, that is, the intensities of degenerate modes have yet to be added.
 dDIP/dQ is the normal mode derivative of the dipole moment.


       mode               1        2        3        4        5        6

     frequency           0.00     0.00     0.00     0.00     0.00     0.00

     symmetry                                                             

        IR                -        -        -        -        -        - 
|dDIP/dQ|   (a.u.)     0.0000   0.0000   0.0000   0.0000   0.0000   0.0000
intensity (km/mol)       0.00     0.00     0.00     0.00     0.00     0.00
intensity (  %   )       0.00     0.00     0.00     0.00     0.00     0.00
 
       RAMAN              -        -        -        -        -        - 
 
  1   c           x  -0.08358 -0.34352  0.03798  0.15974  0.22621 -0.06656
                  y  -0.11288  0.12102 -0.10596 -0.18388  0.07455 -0.17183
                  z   0.36335  0.01715  0.02455  0.02109  0.00539 -0.01497
  2   s           x  -0.01336 -0.23745 -0.14771  0.07358  0.09510 -0.01661
                  y  -0.07178  0.16551 -0.19756 -0.22883  0.00662 -0.14505
                  z   0.14941  0.12153  0.17482  0.15029  0.19065 -0.10754
  3   o           x   0.04964 -0.22713 -0.32641 -0.04277 -0.01171  0.07564
                  y  -0.19076  0.11837 -0.04654 -0.14828  0.15069 -0.18939
                  z   0.09532  0.07472  0.07241  0.05918  0.20326 -0.00854
  4   pu          x   0.00464 -0.02767 -0.16937  0.13552  0.03817 -0.10586
                  y   0.00536 -0.00989 -0.00759 -0.15604  0.04579 -0.20001
                  z   0.03562  0.03647 -0.01490 -0.01870  0.22346  0.07831
  5   o           x  -0.04212  0.17245 -0.00721  0.31749  0.09092 -0.29047
                  y   0.20229 -0.14179  0.03590 -0.16194 -0.05752 -0.21193
                  z  -0.02035 -0.00547 -0.10843 -0.10199  0.23954  0.16990
  6   s           x   0.01724  0.17696 -0.17630  0.20547 -0.00905 -0.20064
                  y   0.08016 -0.19218  0.19370 -0.07805  0.09165 -0.25826
                  z  -0.06243 -0.05890 -0.22073 -0.20163  0.24140  0.27537
  7   o           x   0.06762  0.06160 -0.33675  0.05555 -0.07867 -0.05779
                  y  -0.08578 -0.13922  0.23840 -0.03777  0.21618 -0.27186
                  z  -0.04302 -0.06025 -0.21879 -0.19963  0.22839  0.27020
  8   o           x  -0.05955 -0.11733  0.00143  0.21764  0.15710 -0.15561
                  y   0.09542  0.11594 -0.24791 -0.27172 -0.12130 -0.12980
                  z   0.11828  0.12912  0.18211  0.15623  0.21405 -0.10830
  9   o           x   0.07232  0.05492 -0.35114  0.04344 -0.08569 -0.04674
                  y   0.03771  0.05295 -0.11856 -0.20830 -0.02558 -0.16762
                  z  -0.16416  0.14895  0.15421  0.12732  0.40347 -0.03323
 10   o           x  -0.06325 -0.11015  0.01305  0.22806  0.16239 -0.16538
                  y  -0.02695 -0.07331  0.10418 -0.10345  0.11751 -0.23262
                  z   0.23591 -0.07660 -0.18503 -0.16560  0.04283  0.19064
 11   h           x  -0.13459 -0.35185  0.18265  0.25394  0.31268 -0.14125
                  y  -0.02656  0.14524 -0.20159 -0.23627 -0.02357 -0.14371
                  z   0.41598  0.03963  0.07995  0.07073 -0.01767 -0.07272
 12   h           x  -0.09981 -0.30435  0.08997  0.20896  0.24839 -0.11371
                  y  -0.09913  0.04560 -0.01039 -0.14412  0.10995 -0.19957
                  z   0.39223 -0.04595 -0.08975 -0.07922 -0.04254  0.07949
 13   h           x  -0.05490 -0.43193 -0.05659  0.06393  0.18948  0.02748
                  y  -0.23532  0.14705 -0.05475 -0.14624  0.17482 -0.18717
                  z   0.39915  0.00000  0.00000  0.00000 -0.02547  0.00000

reduced mass(g/mol)     7.567   11.936   24.362   24.979   26.152   30.291


       mode               7        8        9       10       11       12

     frequency          39.74    54.87   109.16   112.70   160.39   176.22

     symmetry            a        a        a        a        a        a   

        IR               YES      YES      YES      YES      YES      YES
|dDIP/dQ|   (a.u.)     0.0010   0.0004   0.0007   0.0009   0.0017   0.0022
intensity (km/mol)       1.85     0.32     0.75     1.40     5.13     8.39
intensity (  %   )       0.60     0.10     0.25     0.46     1.68     2.74
 
       RAMAN             YES      YES      YES      YES      YES      YES
 
  1   c           x  -0.02872  0.36477 -0.22883 -0.26039  0.08137  0.06237
                  y  -0.06868 -0.04810 -0.12813 -0.14034  0.20272 -0.05546
                  z   0.26868  0.12206  0.16133 -0.24861  0.08233  0.02539
  2   s           x  -0.10349  0.13611  0.03347 -0.01881  0.00111 -0.15114
                  y  -0.10229 -0.14796  0.00398 -0.03796  0.15692 -0.13871
                  z   0.26272 -0.01338 -0.07624  0.00996  0.04616 -0.11702
  3   o           x  -0.24108  0.04349  0.21113  0.05185  0.00024 -0.23553
                  y  -0.08685 -0.02478 -0.20590 -0.11854  0.14991 -0.02300
                  z   0.04427 -0.00816 -0.04691  0.02680  0.02904 -0.10390
  4   pu          x   0.04422 -0.07237 -0.00293 -0.00098  0.01414 -0.03041
                  y   0.04588  0.06828  0.01234  0.03160 -0.05656 -0.03995
                  z  -0.11916  0.00173  0.00569  0.00492 -0.00900 -0.02638
  5   o           x  -0.20075  0.07251  0.18615 -0.06899 -0.29331  0.27633
                  y  -0.25184 -0.06330 -0.25154  0.14005  0.35491  0.33783
                  z   0.07837 -0.01027  0.01342  0.00689 -0.04647  0.20107
  6   s           x  -0.12293  0.22523  0.03830  0.08174  0.13894  0.36312
                  y  -0.15526 -0.30026 -0.03308 -0.06829 -0.24530  0.23090
                  z   0.33461 -0.02293  0.01145  0.02559  0.00303  0.24475
  7   o           x   0.03345  0.04903 -0.19134  0.03684 -0.28722  0.25955
                  y   0.11122 -0.11681  0.31646 -0.00826  0.36177  0.28658
                  z   0.29060 -0.03804 -0.02219  0.01985 -0.05506  0.24692
  8   o           x   0.10101  0.00821 -0.05682  0.13277 -0.00265 -0.22355
                  y   0.00328 -0.03910  0.11861 -0.21382  0.14054 -0.00599
                  z   0.23961 -0.03109 -0.09486  0.03823  0.05082 -0.14120
  9   o           x   0.03176 -0.06436 -0.06497 -0.06560 -0.18117 -0.03883
                  y   0.04061  0.07651 -0.02587 -0.01351 -0.20601 -0.07857
                  z  -0.08064 -0.00195  0.04754 -0.05958 -0.14830 -0.01835
 10   o           x   0.07906 -0.07865  0.04112  0.05439  0.18669 -0.06468
                  y   0.06318  0.06620  0.04357  0.08046  0.04642 -0.04297
                  z  -0.20474  0.01732 -0.01434  0.06387  0.12921 -0.06708
 11   h           x   0.04589  0.48040 -0.41770 -0.37433  0.14814  0.16337
                  y  -0.08126 -0.07918  0.03062 -0.13214  0.17454 -0.08730
                  z   0.34733  0.22682  0.13695 -0.38491  0.13059  0.11099
 12   h           x   0.00636  0.38242 -0.28272 -0.26330  0.08847  0.06492
                  y  -0.00032  0.12512 -0.24411 -0.36306  0.29223  0.10954
                  z   0.19114  0.06006  0.28246 -0.20719  0.05638 -0.00650
 13   h           x  -0.09327  0.33553 -0.13469 -0.26571  0.08060  0.07054
                  y  -0.10293 -0.13502 -0.24593  0.01921  0.16681 -0.14580
                  z   0.27027  0.14187  0.20369 -0.29145  0.09178  0.05028

reduced mass(g/mol)    19.858   11.513    7.821    5.281   15.155   20.162


       mode              13       14       15       16       17       18

     frequency         186.54   189.81   213.79   236.15   242.11   282.18

     symmetry            a        a        a        a        a        a   

        IR               YES      YES      YES      YES      YES      YES
|dDIP/dQ|   (a.u.)     0.0016   0.0057   0.0022   0.0013   0.0013   0.0029
intensity (km/mol)       4.55    58.49     8.46     3.13     2.94    15.19
intensity (  %   )       1.49    19.11     2.76     1.02     0.96     4.96
 
       RAMAN             YES      YES      YES      YES      YES      YES
 
  1   c           x   0.11626  0.01017  0.00022 -0.04455  0.02528  0.02303
                  y   0.02772 -0.14738 -0.00023 -0.01080  0.09710  0.00116
                  z  -0.20842  0.06699  0.00569  0.05315  0.02853 -0.04197
  2   s           x  -0.08535 -0.22379  0.00249 -0.00268 -0.10194 -0.00779
                  y  -0.06899 -0.21613 -0.00023  0.01240  0.03559 -0.01550
                  z   0.01453 -0.20047  0.01504 -0.02261 -0.03456  0.03746
  3   o           x  -0.16088 -0.32892  0.10681 -0.21914 -0.06185  0.01074
                  y   0.07271 -0.10488  0.01595 -0.03047  0.02645 -0.03863
                  z   0.06713 -0.19928  0.18450 -0.40529  0.01925  0.00238
  4   pu          x   0.02013  0.08818  0.02089 -0.00677  0.01067  0.04161
                  y   0.00990  0.04661  0.01144 -0.00312  0.01482  0.02196
                  z   0.00635  0.05865 -0.04340  0.01486 -0.00331 -0.08423
  5   o           x   0.13799 -0.26873  0.22294  0.09303  0.17430 -0.01018
                  y  -0.21721  0.12678  0.20228  0.01596 -0.25694  0.03567
                  z   0.00883 -0.08332  0.56785  0.15876  0.01046  0.02623
  6   s           x  -0.00984 -0.07675  0.00453 -0.00062 -0.03674 -0.00756
                  y  -0.01694 -0.13967 -0.00265  0.00933  0.04598 -0.00355
                  z  -0.01301 -0.07431 -0.01110 -0.00788 -0.00029  0.01334
  7   o           x  -0.19790 -0.14205 -0.53940 -0.14651  0.19367 -0.02931
                  y   0.23670 -0.05055 -0.36110 -0.09794 -0.25694 -0.01252
                  z  -0.03897 -0.08764  0.03542  0.00892  0.02664  0.00294
  8   o           x  -0.09668 -0.32669 -0.19302  0.44431 -0.16239 -0.00761
                  y  -0.15169 -0.00721 -0.06276  0.13503  0.01435  0.03549
                  z   0.02137 -0.24654  0.01563 -0.03158 -0.03710  0.01312
  9   o           x   0.22764  0.11147  0.01891 -0.00646 -0.43580 -0.26081
                  y   0.12301  0.05806  0.01123 -0.00759 -0.30022 -0.13483
                  z  -0.33036  0.24915 -0.03129 -0.06606 -0.22809  0.62585
 10   o           x  -0.14358  0.19487  0.05188 -0.01353  0.37518 -0.32936
                  y  -0.07227  0.11615  0.02598  0.00025  0.29002 -0.18406
                  z   0.37752 -0.04951 -0.12275  0.11389  0.29852  0.55668
 11   h           x   0.24966  0.11427 -0.07100  0.11580  0.12591  0.01947
                  y  -0.13530 -0.14149 -0.02181  0.10745  0.04652 -0.07027
                  z  -0.26191  0.20908 -0.11576  0.42254  0.08837 -0.14496
 12   h           x   0.13866  0.00768 -0.05567  0.10605  0.02426 -0.00038
                  y   0.09080  0.06762 -0.04269  0.09429  0.24288 -0.02794
                  z  -0.26050  0.03975  0.11825 -0.24903  0.01164  0.00655
 13   h           x   0.08657  0.03637  0.11233 -0.35471  0.05716  0.06722
                  y   0.18945 -0.33186  0.06295 -0.25158  0.04266  0.11784
                  z  -0.25500  0.11847  0.00213  0.08054  0.04670 -0.06754

reduced mass(g/mol)    10.807   18.518   15.748    8.841   14.905   17.392


       mode              19       20       21       22       23       24

     frequency         294.85   319.47   321.20   407.61   520.29   542.73

     symmetry            a        a        a        a        a        a   

        IR               YES      YES      YES      YES      YES      YES
|dDIP/dQ|   (a.u.)     0.0005   0.0009   0.0058   0.0034   0.0077   0.0039
intensity (km/mol)       0.38     1.59    60.37    20.49   105.31    26.53
intensity (  %   )       0.13     0.52    19.73     6.70    34.41     8.67
 
       RAMAN             YES      YES      YES      YES      YES      YES
 
  1   c           x   0.00530  0.09640  0.00150 -0.03677  0.00615 -0.01491
                  y  -0.00977  0.04698 -0.05725 -0.24444  0.01026  0.02052
                  z   0.04017 -0.18236 -0.00302 -0.08609  0.00597 -0.00121
  2   s           x   0.00835 -0.04076 -0.00198  0.11139 -0.08661  0.18644
                  y  -0.00662 -0.02759 -0.03258 -0.07309 -0.03641  0.07399
                  z  -0.00550  0.08419 -0.01854  0.03506 -0.05351  0.11346
  3   o           x  -0.05175  0.03798 -0.05421 -0.10053  0.01166 -0.02756
                  y   0.04574 -0.23007  0.03610  0.21211 -0.00993 -0.00080
                  z  -0.02928 -0.06185 -0.00150  0.08142  0.18651 -0.47563
  4   pu          x  -0.00057 -0.00183  0.07711 -0.00260 -0.00283  0.00224
                  y  -0.00041 -0.00058  0.05635 -0.00445 -0.00153  0.00055
                  z   0.00110  0.00772  0.05359 -0.00265 -0.00185  0.00148
  5   o           x   0.00563  0.00184 -0.02943 -0.00031  0.00515  0.00307
                  y  -0.00265  0.00458 -0.02068 -0.00203  0.05426  0.01545
                  z   0.00067  0.00705 -0.02025  0.00790  0.60806  0.16077
  6   s           x   0.00302  0.00127 -0.02357 -0.00600 -0.20072 -0.04808
                  y  -0.00190 -0.00053 -0.01845 -0.00231 -0.15604 -0.03624
                  z  -0.00337 -0.00254 -0.01737 -0.00225 -0.14371 -0.03356
  7   o           x  -0.00061 -0.00504 -0.03591  0.00694  0.45066  0.11998
                  y  -0.00481 -0.00939 -0.00795  0.00116  0.29444  0.07810
                  z  -0.00268 -0.00022 -0.02246 -0.00323 -0.28446 -0.07231
  8   o           x   0.03258 -0.03526 -0.03140 -0.05101  0.14855 -0.37183
                  y  -0.00263  0.24942 -0.00683  0.24214  0.06349 -0.18689
                  z  -0.00412  0.02833 -0.02807 -0.03204 -0.09014  0.21967
  9   o           x  -0.00208 -0.00721 -0.45941 -0.01134  0.00806  0.02051
                  y  -0.00278 -0.00591 -0.33668 -0.01031 -0.01958 -0.03579
                  z  -0.00829 -0.01204 -0.33514 -0.00932 -0.00131 -0.00010
 10   o           x   0.00142  0.01273 -0.51292  0.04218 -0.02107 -0.01864
                  y   0.00072  0.00554 -0.36661  0.01762  0.01137  0.03967
                  z   0.00574 -0.04545 -0.33588  0.02573 -0.00757  0.00143
 11   h           x  -0.30533  0.18957 -0.00182 -0.19958  0.09580 -0.21936
                  y  -0.07819 -0.28979 -0.01323 -0.07854 -0.06203  0.17860
                  z  -0.45109 -0.52751  0.05437 -0.06551  0.02187 -0.04813
 12   h           x  -0.24893  0.07263  0.02397  0.09841 -0.04309  0.09216
                  y  -0.17191  0.02097 -0.06550 -0.67605  0.22265 -0.47302
                  z   0.54891 -0.13395 -0.04994 -0.28065  0.06720 -0.13328
 13   h           x   0.50241  0.20763 -0.06495 -0.37263  0.12829 -0.28106
                  y   0.20315  0.51860 -0.10362 -0.16941 -0.04422  0.14807
                  z   0.04308 -0.29433  0.00063 -0.14798  0.03509 -0.06604

reduced mass(g/mol)     1.136    3.687   18.381    4.268   16.224   10.367


       mode              25       26       27       28       29       30

     frequency         667.90   858.29   925.10   929.22   946.55  1005.89

     symmetry            a        a        a        a        a        a   

        IR               YES      YES      YES      YES      YES      YES
|dDIP/dQ|   (a.u.)     0.0045   0.0008   0.0131   0.0024   0.0105   0.0116
intensity (km/mol)      36.78     1.11   306.01    10.46   194.52   237.62
intensity (  %   )      12.02     0.36   100.00     3.42    63.56    77.65
 
       RAMAN             YES      YES      YES      YES      YES      YES
 
  1   c           x  -0.15812  0.00616  0.09462 -0.06747  0.12085 -0.12411
                  y   0.39121  0.02933  0.04160 -0.03669  0.02861 -0.01780
                  z   0.02807  0.01271  0.04142  0.12744  0.07791 -0.06346
  2   s           x   0.09759  0.01961 -0.00515 -0.00245 -0.01112  0.15871
                  y  -0.19603  0.01839  0.04588 -0.00305  0.06941  0.08552
                  z  -0.00482  0.01419  0.00861  0.00427  0.01297  0.09060
  3   o           x  -0.03956 -0.03664 -0.05863  0.03240 -0.06414 -0.20531
                  y   0.00318 -0.03121 -0.06982  0.05557 -0.09388 -0.12848
                  z   0.03602  0.07059  0.04079 -0.02203  0.05160  0.07696
  4   pu          x   0.00049  0.00365  0.03439  0.00081 -0.00639 -0.00085
                  y   0.00117 -0.00718 -0.05130 -0.00114  0.00931 -0.00034
                  z   0.00052 -0.00005  0.00336  0.00008 -0.00069 -0.00057
  5   o           x  -0.00042  0.01043 -0.00749 -0.00012 -0.00210 -0.06038
                  y  -0.00011  0.00632  0.00431  0.00040 -0.00275 -0.04122
                  z  -0.00331 -0.04558  0.00439 -0.00045  0.00274  0.03270
  6   s           x  -0.00006 -0.00838  0.00319 -0.00008  0.00136  0.03510
                  y   0.00068 -0.00760  0.00028 -0.00006  0.00195  0.02740
                  z   0.00060 -0.00577  0.00192  0.00016  0.00159  0.02243
  7   o           x  -0.00275 -0.02896 -0.00205  0.00022  0.00146 -0.00436
                  y  -0.00121 -0.01553  0.00683  0.00014 -0.00088 -0.01061
                  z   0.00186  0.03328 -0.00598 -0.00008 -0.00419 -0.07474
  8   o           x   0.00192  0.03670  0.00706  0.00735  0.01950 -0.04304
                  y   0.02533  0.00847 -0.02596 -0.03106 -0.05217 -0.03770
                  z  -0.04787 -0.07611 -0.08117 -0.05308 -0.11809 -0.22341
  9   o           x  -0.00449  0.35500 -0.29037 -0.00622  0.03998 -0.00965
                  y   0.00061 -0.52260  0.43047  0.00935 -0.05720  0.01637
                  z  -0.00201  0.03588 -0.02888 -0.00097  0.00440 -0.00008
 10   o           x   0.01147 -0.41760 -0.22431 -0.00533  0.05281  0.01336
                  y  -0.01436  0.62199  0.32963  0.00785 -0.08064 -0.01970
                  z   0.00188 -0.04232 -0.02386 -0.00036  0.00491  0.00169
 11   h           x  -0.33062 -0.02112 -0.21707  0.30465 -0.25692  0.30315
                  y   0.51223  0.03655  0.23763 -0.57800  0.20672 -0.25012
                  z  -0.02720 -0.00927 -0.07629 -0.16281 -0.14842  0.15015
 12   h           x  -0.08457  0.02816  0.18408  0.10538  0.27049 -0.23219
                  y   0.06240 -0.09876 -0.57862  0.07325 -0.73175  0.63911
                  z  -0.06363 -0.01772 -0.05328 -0.22041 -0.10611  0.07269
 13   h           x  -0.38401 -0.03432 -0.21787 -0.17151 -0.35187  0.35994
                  y   0.48118  0.03827  0.07490  0.64472  0.22448 -0.17375
                  z  -0.02168  0.00402 -0.00937 -0.07496 -0.03912  0.04253

reduced mass(g/mol)     4.559   15.797    8.851    1.383    2.137    4.528


       mode              31       32       33       34       35       36

     frequency        1017.93  1023.45  1056.45  1290.40  1441.68  1449.52

     symmetry            a        a        a        a        a        a   

        IR               YES      YES      YES      YES      YES      YES
|dDIP/dQ|   (a.u.)     0.0054   0.0095   0.0107   0.0034   0.0014   0.0018
intensity (km/mol)      51.78   161.05   202.65    20.08     3.65     6.07
intensity (  %   )      16.92    52.63    66.22     6.56     1.19     1.98
 
       RAMAN             YES      YES      YES      YES      YES      YES
 
  1   c           x  -0.05348  0.03324  0.00276  0.06100  0.03273 -0.04267
                  y  -0.00881  0.02184  0.00105 -0.12278  0.01893 -0.02245
                  z  -0.02212 -0.08997 -0.00362 -0.00300  0.04768  0.04039
  2   s           x   0.08056 -0.14447 -0.00793  0.00218  0.00542 -0.00385
                  y   0.04859 -0.07750 -0.00474  0.00349  0.00043 -0.00120
                  z   0.02896  0.32303  0.01137  0.00195  0.00448  0.00227
  3   o           x  -0.11594  0.28096  0.01498 -0.00495 -0.00216  0.00085
                  y  -0.07784  0.21346  0.01011 -0.00356  0.00047 -0.00056
                  z   0.04212 -0.18756 -0.01191  0.00120 -0.00170  0.00013
  4   pu          x   0.00064 -0.00110 -0.00134  0.00024  0.00009 -0.00003
                  y   0.00059 -0.00057 -0.00072 -0.00037 -0.00015  0.00005
                  z   0.00035  0.00214  0.00269  0.00003 -0.00000 -0.00002
  5   o           x   0.47267  0.00459  0.42080  0.00011  0.00000 -0.00003
                  y   0.32242  0.00252  0.28248  0.00025  0.00007 -0.00014
                  z  -0.22134 -0.00294 -0.26129  0.00008  0.00010  0.00003
  6   s           x  -0.26668 -0.00337 -0.19802 -0.00019 -0.00004  0.00009
                  y  -0.20864 -0.00389 -0.10207 -0.00007 -0.00004  0.00002
                  z  -0.15676 -0.01468  0.44268 -0.00010 -0.00004 -0.00011
  7   o           x   0.05953  0.00413 -0.01374  0.00013  0.00010 -0.00005
                  y   0.09323  0.00619 -0.07265  0.00022  0.00009  0.00000
                  z   0.53334  0.02949 -0.64928  0.00032  0.00019  0.00001
  8   o           x  -0.02435  0.00427  0.00344 -0.00135 -0.00265  0.00107
                  y  -0.02101 -0.06321  0.00083 -0.00143  0.00064  0.00038
                  z  -0.09076 -0.43898 -0.01409 -0.00545 -0.00081  0.00030
  9   o           x  -0.02399  0.00089  0.00447 -0.00093 -0.00045  0.00019
                  y   0.03379  0.00351  0.00018  0.00122  0.00062 -0.00023
                  z  -0.00300 -0.00474 -0.00624 -0.00019 -0.00012  0.00009
 10   o           x   0.02277  0.00433  0.00206 -0.00156 -0.00063 -0.00013
                  y  -0.03713 -0.00077  0.00354  0.00384  0.00152 -0.00073
                  z   0.00111 -0.00562 -0.00628  0.00030  0.00044  0.00045
 11   h           x   0.14153 -0.18775 -0.01480 -0.39725 -0.28097 -0.30416
                  y  -0.12602  0.37672  0.02115  0.40485 -0.18983  0.20293
                  z   0.05834  0.15353  0.00372  0.10367 -0.63819 -0.02191
 12   h           x  -0.08955 -0.11862 -0.00274 -0.06183  0.10033  0.30070
                  y   0.25837 -0.00533 -0.00372  0.55831  0.37265  0.04923
                  z   0.01904  0.20717  0.00709  0.10964 -0.15308 -0.62354
 13   h           x   0.15064  0.13157  0.00403 -0.25359 -0.31059  0.60800
                  y  -0.05483 -0.47029 -0.02023  0.47237 -0.43863  0.05985
                  z   0.01666  0.07188  0.00311 -0.18340  0.11287  0.08342

reduced mass(g/mol)    16.273   10.557   19.933    1.217    1.051    1.052


       mode              37       38       39

     frequency        3046.38  3154.36  3163.72

     symmetry            a        a        a   

        IR               YES      YES      YES
|dDIP/dQ|   (a.u.)     0.0036   0.0023   0.0007
intensity (km/mol)      23.28     9.58     0.93
intensity (  %   )       7.61     3.13     0.30
 
       RAMAN             YES      YES      YES
 
  1   c           x  -0.02001 -0.01945 -0.08296
                  y   0.03712 -0.01327 -0.03951
                  z   0.00277  0.09091 -0.02399
  2   s           x   0.00007 -0.00017 -0.00059
                  y  -0.00015 -0.00019 -0.00001
                  z   0.00002  0.00069 -0.00007
  3   o           x   0.00013  0.00030  0.00034
                  y   0.00012  0.00007  0.00006
                  z  -0.00019 -0.00031 -0.00002
  4   pu          x   0.00001 -0.00001  0.00002
                  y  -0.00001 -0.00000 -0.00002
                  z   0.00000  0.00000  0.00001
  5   o           x   0.00003  0.00002  0.00001
                  y   0.00002 -0.00001  0.00001
                  z   0.00003 -0.00001  0.00000
  6   s           x   0.00001 -0.00000 -0.00001
                  y  -0.00002 -0.00000  0.00001
                  z  -0.00001 -0.00000 -0.00000
  7   o           x   0.00004 -0.00001 -0.00001
                  y   0.00001  0.00001  0.00002
                  z   0.00001 -0.00002 -0.00001
  8   o           x  -0.00011 -0.00003  0.00020
                  y   0.00002  0.00011  0.00003
                  z   0.00018 -0.00049  0.00006
  9   o           x  -0.00005  0.00001 -0.00005
                  y   0.00010 -0.00002 -0.00001
                  z   0.00000  0.00001 -0.00001
 10   o           x  -0.00022  0.00009 -0.00025
                  y   0.00018 -0.00004  0.00017
                  z  -0.00005 -0.00001 -0.00011
 11   h           x  -0.34127  0.35778  0.34800
                  y  -0.35236  0.38172  0.37479
                  z   0.26656 -0.26388 -0.28116
 12   h           x   0.51157 -0.20786  0.68599
                  y   0.05098 -0.01910  0.04834
                  z   0.27051 -0.08770  0.36202
 13   h           x   0.06617  0.08367 -0.03404
                  y  -0.13948 -0.19986  0.04758
                  z  -0.57029 -0.74137  0.20723

reduced mass(g/mol)     1.028    1.105    1.107
 

 <geterg> : there is no data group $energy 


         **************************************************************
         *                                                            *
         *  zero point VIBRATIONAL energy  :      0.0601132  Hartree  *
         *                                                            *
         **************************************************************




 time elapsed for vibrational analysis     0.03 sec


    ------------------------------------------------------------------------
         total  cpu-time :   0.10 seconds
         total wall-time :   0.19 seconds
    ------------------------------------------------------------------------

   ****  force : all done  ****


    2018-02-01 21:47:14.231 

