
   OpenMP run-time library returned nthreads =  4
 operating system is UNIX !

 force (u-1-5.local) : TURBOMOLE V7.2 ( 21285 ) 30 Jun 2017 at 09:40:16
 Copyright (C) 2017 TURBOMOLE GmbH, Karlsruhe


    2017-09-13 12:39:08.687 



                             T U R B O M O L E   

                          a o f o r c e - program

                        using direct algorithms for

                       SCF level calculations of
                         * harmonic force constants
                         * hyperpolarizabilities
                         * IR and RAMAN intensities
                         * VCD intensities

                       DFT level calculations of
                         * harmonic force constants
                         * IR intensities
                                                   
       Stephan Boecker, Peter Deglmann, Filipp Furche and Marco Haeser
                          Quantum Chemistry Group
                          Universitaet  Karlsruhe
                                   Germany

 
 

          OpenMP Shared-Memory Parallelization:  4 CPUs.

            By: Erik P. Almaraz and Filipp Furche
            Copyright 2009-2011 by UCI and TURBOMOLE GmbH.

 
 
     References :
 
       RI-J implementation:
         Peter Deglmann, Klaus May, Filipp Furche, Reinhart Ahlrichs
                 Chem. Phys. Lett. 384:103 (2004)
 
       Efficiency, technical details:
         Peter Deglmann, Filipp Furche, Reinhart Ahlrichs
                 Chem. Phys. Lett. 362:511 (2002)
 
       Search of lowest eigenvalues by iterative diagonalization:
         Peter Deglmann, Filipp Furche
                 J. Chem. Phys. 117:9535 (2002)
 
       Vibrational circular dichroism implementation:
        Kevin Reiter, Michael Kuehn, Florian Weigend
                 J. Chem. Phys. 146:054102 (2017)  
 
 


              +--------------------------------------------------+
              | Atomic coordinate, charge and isotop information |
              +--------------------------------------------------+

                    atomic coordinates            atom    charge  isotop
          0.00000000    0.00000000    0.73646974    o      8.000     0
         -1.43600709    0.00000000   -0.36823487    h      1.000     0
          1.43600709    0.00000000   -0.36823487    h      1.000     0
 
       center of nuclear mass  :    0.00000000    0.00000000    0.61285186
       center of nuclear charge:    0.00000000    0.00000000    0.51552882

              +--------------------------------------------------+
              |               basis set information              |
              +--------------------------------------------------+

              we will work with the 1s 3p 5d 7f 9g ... basis set
              ...i.e. with spherical basis functions...

   type   atoms  prim   cont   basis
   ---------------------------------------------------------------------------
    o        1     66     46   aug-cc-pVTZ   [5s4p3d2f|19s6p3d2f]
    h        2     25     23   aug-cc-pVTZ   [4s3p2d|6s3p2d]
   ---------------------------------------------------------------------------
   total:    3    116     92
   ---------------------------------------------------------------------------

   total number of primitive shells          :   41
   total number of contracted shells         :   32
   total number of cartesian basis functions :  105
   total number of SCF-basis functions       :   92

 
             FOUND RI-J FLAG !
 

 NOTE: THIS IS A PRELIMINARY IMPLEMENTATION. THE RI APPROXIMATION IS
       PRESENTLY USED FOR CPKS CONTRIBUTIONS TO THE HESSIAN ONLY! SEE
       MANUAL FOR FURTHER DETAILS.

  
 AUXILIARY BASIS SET information:

              we will work with the 1s 3p 5d 7f 9g ... basis set
              ...i.e. with spherical basis functions...

   type   atoms  prim   cont   basis
   ---------------------------------------------------------------------------
    o        1     70     49   aug-cc-pVTZ   [6s4p3d1f1g|12s5p4d2f1g]
    h        2     16     11   aug-cc-pVTZ   [3s1p1d|5s2p1d]
   ---------------------------------------------------------------------------
   total:    3    102     71
   ---------------------------------------------------------------------------

   total number of primitive shells          :   32
   total number of contracted shells         :   25
   total number of cartesian basis functions :   85
   total number of SCF-basis functions       :   71


 symmetry group of the molecule :   c2v

 the group has the following generators :
   c2(z)
   mirror plane sigma(xz)

    4 symmetry operations found

 there are 4 real representations :   a1   a2   b1   b2  

 maximum number of shells which are related by symmetry :  2


 determining totally symmetric integral contributions 
    - equivalent to irreducible tensor elements - 
 which can be formed within each triple of representations :

             representation triple      contributions

              a1    a1    a1              1
              a1    a2    a2              1
              a1    b1    b1              1
              a1    b2    b2              1
              a2    a1    a2              1
              a2    a2    a1              1
              a2    b1    b2              1
              a2    b2    b1              1
              b1    a1    b1              1
              b1    a2    b2              1
              b1    b1    a1              1
              b1    b2    a2              1
              b2    a1    b2              1
              b2    a2    b1              1
              b2    b1    a2              1
              b2    b2    a1              1

    mo occupation :
   irrep   mo's   occupied
    a1      35        3
    a2      12        0
    b1      27        1
    b2      18        1
 
 number of basis functions   :                     92
 number of occupied orbitals :                      5
 
  MOs are in ASCII format !


 reading orbital data $scfmo  from file mos
 orbital characterization : scfconv=6
 time elapsed for calculating density matrices :   0.000 sec

 number of non-frozen orbitals          :    92
 number of non-frozen occupied orbitals :     5
 Blocking parameters 
 shells:
    index      start shell   last shell  start bf    last bf    #bf 
       1             1          32             1        105    105
  
           ----------------------
               RI - INFORMATION
           ----------------------

 biggest AO integral is expected to be     4.866064444

 Threshold for integral neglect (rithr2):   0.12E-09
 Threshold for integral neglect (rithr1):   0.12E-09

 Contributions to RI integral batches: 
  neglected integral batches:                   207
  direct contribution:                            0
  memory contribution:                   321
 Core memory available (ricore):               500 MiB
 Core memory needed for (P|Q) and Cholesky:      1 MiB
 Core memory used for integrals:                 3 MiB
 
 ****************************************
 Memory allocated for RIDFT: 3 MiB
 ****************************************
 
  
           ------------------
           density functional
           ------------------
 PBE0 hybrid functional
 exchange:    3/4 (LDA+PBE) + 1/4 HF
 correlation: LDA (PW) + PBE

 iterations will be done with small grid
  
 spherical integration : Lebedev's spherical grid
 spherical gridsize    :                     4
    i.e. gridpoints    :                   434
 value for diffuse not defined
 radial integration    : Chebyshev 2nd kind (scaling 3)
 radial gridsize       :                     6
 integration cells     :                     2
 partition function    : becke
 partition sharpness   :                     3
  
 
 Derivatives of quadrature weights will be included
 
          Overall gridpoints after grid construction =          7835
 Ordering of quadrature gridpoints disabled.
 
 
 
 
 OCCUPIED-OCCUPIED TENSOR SPACES :

          IRREP   tensor space dimension   number of roots

           a1               11                   2
           b1                6                   1
 
 OCCUPIED-VIRTUAL TENSOR SPACES :

          IRREP   tensor space dimension   number of roots

           a1              139                   2
           b1              122                   1
 
 
 
 
 CONSTRUCTING integral bounds

 setting up bound for integral derivative estimation

 increment for numerical differentiation : 0.00050000
 
 machine precision:   2.220446049250313E-016

 integral neglect threshold       :  0.10E-09
 integral storage threshold THIZE :  0.10E-04
 integral storage threshold THIME :         5

 
 
 
 PREPARING NUMERICAL INTEGRATION
 
 Remaining core memory for DFT =                  1998 MB
 
 Memory needed per atom    =                   130 KiB
 
     i. e.                     3 atoms per loop

 Calculating ground state density on molecular grid

 Integral of ground state density: N =   9.999999240970705    


 
 
 CONSTRUCTING first deriv. of <mu|x,y,z|nu> -> Dip. deriv.
  dipole integral derivatives will be neglected if
  expon. factor <0.476190E-10
      ...terminated. cpu:       0.01       wall:       0.00
 
 
 
 
 CONSTRUCTING first deriv. of  <mu|nu>
                               <mu|h|nu>    -> RHS
              second deriv. of <mu|nu>      -> Hessian
                               <mu|h|nu>    -> Hessian
                               nucl. rep.   -> Hessian
     integrals are neglected if expon. factor <  1.000000000000000E-012
      ...terminated. cpu:       0.07       wall:       0.02
 
 
 
 
 CONSTRUCTING second deriv. of 2e energy    -> Hessian
   treating Coulomb (and exchange) contribution
     integrals will be neglected if total contribution <  4.761904761904761E-008
      ...terminated. cpu:       2.08       wall:       0.55
   treating exchange-correlation contribution
      ...terminated. cpu:       2.29       wall:       0.73
 
 
 
 
 CONSTRUCTING S(i,j)xi
      ...terminated. cpu:       0.00       wall:       0.00
 
 
 
 
 CONSTRUCTING <i|x,y,z|j>*S(i,j)xi          -> Dip. deriv.
      ...terminated. cpu:       0.00       wall:       0.00
 
 
 
 
 CONSTRUCTING epsilon(i)*S(i,j)xi*S(i,j)chi -> Hessian
      ...terminated. cpu:       0.00       wall:       0.00
 
 
 
 
 CONSTRUCTING G(a,i)[S(k,l)xi]              -> RHS
              G(i,j)[S(k,l)xi]*S(i,j)chi    -> Hessian
 
         Maximum core memory set to                   2000 MB
         This corresponds to                 22637 vectors in CAO basis
      ...terminated. cpu:       0.87       wall:       0.24
 
 
 
 
 CONSTRUCTING G(mu,nu)[D(kap,lam)]xi
 
          Maximum core memory set to                   2000 MB
          Atoms treated simultaneously :                     3
      ...terminated. cpu:       2.76       wall:       0.69
 
 
 
 
 CONSTRUCTING F(a,i)xi                      -> RHS
              F(i,j)xi*S(i,j)chi            -> Hessian
 
        Maximum core memory set to                  2000 MB
        This corresponds to                 45957 vectors in CAO basis
      ...terminated. cpu:       0.01       wall:       0.00
 
 
 
 
 CONSTRUCTING epsilon(i)*S(a,i)xi           -> RHS
      ...terminated. cpu:       0.01       wall:       0.00
 
 
 
 
 SOLVING CPHF equations
 
 Residuum convergence criterium   :  1.000000000000000E-005
 
 Maximum number of Davidson iterations set to                    25
  Switching to small grid
        preparing numerical integration ....
          Overall gridpoints after grid construction =          2169

 Calculating ground state density on molecular grid

 Integral of ground state density: N =   10.00004186616198    




                       Nonorthonormal Krylov Space Iteration


 total number of roots to be determined:   3


 maximum core memory set to  2000 MB,
 corresponding to    22472 vectors in CAO basis


 maximum number of simultaneously treated vectors (including degeneracy):        3


 Iteration IRREP Converged      Max. Euclidean
                 roots          residual norm

    1       a1       0        1.073157457160898D-01
            b1       0        7.136026453339289D-02
 
    2       a1       0        9.395469106766670D-03
            b1       0        8.206124602608198D-03
 
    3       a1       0        1.050639511836296D-03
            b1       0        7.216060494707735D-04
 
    4       a1       0        7.379243000655249D-05
            b1       0        1.037907992685628D-04
 
    5       a1       2        4.781254321865287D-06
            b1       1        6.339229912894249D-06
 

 converged!

  Switching to fine grid
        preparing numerical integration ....
          Overall gridpoints after grid construction =          7835

 Calculating ground state density on molecular grid

 Integral of ground state density: N =   9.999999240970745    



 Iteration IRREP Converged      Max. Euclidean
                 roots          residual norm

    6       a1       0        2.831958604374983D-05
            b1       0        2.775996483942206D-05
 

 NOTE: Residual norms are larger than 1.00D-05 due to mgrid option!

      ...terminated. cpu:       3.56       wall:       0.89
 
 
 
 
 CONSTRUCTING <a|x,y,z|i>*U(a,i)xi          -> Dip. deriv.
      ...terminated. cpu:       0.01       wall:       0.00
 
 
 
 
 CONSTRUCTING RHS(a,i)xi*U(a,i)chi          -> Hessian
      ...terminated. cpu:       0.00       wall:       0.00
 
 
 
 

            -----------------------
            permanent dipole moment
            -----------------------

                                   x                y                z
    electronic part       :   -0.0000000000     0.0000000000    -5.8846225403
     nuclear   part       :    0.0000000000     0.0000000000     5.1552882056
     total                :   -0.0000000000     0.0000000000    -0.7293343347

 with reference to the point :   0.0000000        0.0000000        0.0000000
 (given in atomic units)
    | dipole |       :    1.8537969812  debye

   ***  dipole moment & cartesian dipole gradients written onto
        $dipole, $dipgrad,  file=<dipgrad>  ***

             -----------------------------------
             rotational and vibrational analysis
             -----------------------------------


            ==============================================================
            ATOMIC WEIGHTS (average over the natural occurance of isotops)
            ==============================================================
            ('*' denotes special isotop !)
              1     o                15.99940
              2     h                 1.00797
              3     h                 1.00797

          -------------------------------------------------
          CARTESIAN FORCE CONSTANT MATRIX (hartree/bohr**2)
         (translational & rotational space projected out)
          -------------------------------------------------

   ATOM              1 o                           2 h 
                  dx        dy        dz        dx        dy        dz
   1 o     dx  0.6968808
           dy  0.0000000 0.0000000
           dz  0.0000000 0.0000000 0.4602141
   2 h     dx -0.3484404 0.0000000-0.2074035 0.3791936
           dy  0.0000000 0.0000000 0.0000000 0.0000000 0.0000000
           dz -0.2680514 0.0000000-0.2301071 0.2377274 0.0000000 0.2181580
   3 h     dx -0.3484404 0.0000000 0.2074035-0.0307532 0.0000000 0.0303240
           dy  0.0000000 0.0000000 0.0000000 0.0000000 0.0000000 0.0000000
           dz  0.2680514 0.0000000-0.2301071-0.0303240 0.0000000 0.0119490

   ATOM              3 h 
                  dx        dy        dz
   3 h     dx  0.3791936
           dy  0.0000000 0.0000000
           dz -0.2377274 0.0000000 0.2181580
 

   *** projected hessian written onto $hessian (projected), file=<hessian> ***

 dipole moment in principle axis system (a.u.) :
    -0.0000000000     0.0000000000    -0.7293343347
 norm :  0.729334334707415     

 rotational constants b for rotations around axis of inertia
 and optical intensities for (1 <-- 0) transition

   b   :    27.5526297984     9.4922230106    14.4811636663   (cm**(-1))
   b   :      826007.0612      284569.6868      434134.3650     (MHz)
  int. :     0.0000000000     0.0000000000     0.5319285718     (a.u.)

   x   :     1.0000000000     0.0000000000     0.0000000000
   y   :     0.0000000000     1.0000000000     0.0000000000
   z   :     0.0000000000     0.0000000000     1.0000000000

   ***  normal modes written onto $vibrational normal modes, file=<vib_normal_modes>  ***

 keyword $vibrational reduced masses missing in file <control>


   ***  vibrational spectroscopic data written onto$vibrational spectrum   
        file=<vibspectrum>  ***

          ---------------------------------------------------
          NORMAL MODES and VIBRATIONAL FREQUENCIES (cm**(-1))
          ---------------------------------------------------

 imaginary wave numbers indicate a negative curvature of the energy surface.
 zero frequency modes have no physical meaning except being generators of
 translations and rotations. each vibrational normal mode - given in terms of
 cartesian displacement vectors of all atoms - has been normalized to unity.
 to obtain mass-weigthed normal coordinates in a.u. divide the tabulated
 modes by sqrt(reduced mass * 1822.88853).
 band intensities or cross sections refer to independent non-degenerate normal
 modes, that is, the intensities of degenerate modes have yet to be added.
 dDIP/dQ is the normal mode derivative of the dipole moment.


       mode               1        2        3        4        5        6

     frequency           0.00     0.00     0.00     0.00     0.00     0.00

     symmetry                                                             

        IR                -        -        -        -        -        - 
|dDIP/dQ|   (a.u.)     0.0000   0.0000   0.0000   0.0000   0.0000   0.0000
intensity (km/mol)       0.00     0.00     0.00     0.00     0.00     0.00
intensity (  %   )       0.00     0.00     0.00     0.00     0.00     0.00
 
       RAMAN              -        -        -        -        -        - 
 
  1   o           x   0.42219  0.00000  0.00000  0.04939  0.09944 -0.04947
                  y   0.00000  1.00000  0.00000  0.00000  0.00000  0.00000
                  z   0.06163  0.00000  0.00000  0.27392 -0.12882  0.09810
  2   h           x   0.37478  0.00000  0.00000 -0.16133  0.19854  0.39260
                  y   0.00000  0.00000  1.00000  0.00000  0.00000  0.00000
                  z   0.12326  0.00000  0.00000  0.54784 -0.25763 -0.47654
  3   h           x   0.37478  0.00000  0.00000 -0.16133  0.19854  0.39260
                  y  -0.72239  0.00000  0.00000  0.75521  0.91011  0.00000
                  z   0.00000  0.00000  0.00000  0.00000  0.00000  0.67274

reduced mass(g/mol)     3.737   15.999    1.008    2.169    1.405    1.189


       mode               7        8        9

     frequency        1634.24  3856.01  3961.25

     symmetry            a1       a1       b1  

        IR               YES      YES      YES
|dDIP/dQ|   (a.u.)     0.0066   0.0018   0.0061
intensity (km/mol)      76.51     5.57    66.72
intensity (  %   )     100.00     7.28    87.20
 
       RAMAN             YES      YES      YES
 
  1   o           x   0.00000 -0.00000  0.07044
                  y   0.00000  0.00000  0.00000
                  z   0.07082  0.04970 -0.00000
  2   h           x   0.42609 -0.58584 -0.55906
                  y   0.00000  0.00000  0.00000
                  z  -0.56208 -0.39441 -0.43008
  3   h           x  -0.42609  0.58584 -0.55906
                  y   0.00000 -0.00000 -0.00000
                  z  -0.56208 -0.39441  0.43008

reduced mass(g/mol)     1.083    1.045    1.082
 

         **************************************************************
         *                                                            *
         *  zero point VIBRATIONAL energy  :      0.0215321  Hartree  *
         *    SCF-energy                   :    -76.3801639           *
         *    SCF + E(vib0)                :    -76.3586318           *
         *                                                            *
         **************************************************************




 time elapsed for vibrational analysis     0.03 sec


    ------------------------------------------------------------------------
         total  cpu-time :  14.84 seconds
         total wall-time :   6.63 seconds
    ------------------------------------------------------------------------

   ****  force : all done  ****


    2017-09-13 12:39:14.938 

aoforce ended normally 
