3
Energy = -76.38016389443
O     0.0000000    0.0000000    0.3897230 
H    -0.7599022    0.0000000   -0.1948615 
H     0.7599022    0.0000000   -0.1948615 
