
   OpenMP run-time library returned nthreads =  8
 operating system is UNIX !

 force (u-0-8.local) : TURBOMOLE V7.3 ( 22142 ) 4 Jul 2018 at 18:12:42
 Copyright (C) 2018 TURBOMOLE GmbH, Karlsruhe


    2019-02-05 09:41:47.022 



                             T U R B O M O L E   

                          a o f o r c e - program

                        using direct algorithms for

                       SCF level calculations of
                         * harmonic force constants
                         * hyperpolarizabilities
                         * IR and RAMAN intensities
                         * VCD intensities

                       DFT level calculations of
                         * harmonic force constants
                         * IR intensities
                                                   
       Stephan Boecker, Peter Deglmann, Filipp Furche and Marco Haeser
                          Quantum Chemistry Group
                          Universitaet  Karlsruhe
                                   Germany

 
 

          OpenMP Shared-Memory Parallelization:  8 CPUs.

            By: Erik P. Almaraz and Filipp Furche
            Copyright 2009-2011 by UCI and TURBOMOLE GmbH.

 
 
     References :
 
       RI-J implementation:
         Peter Deglmann, Klaus May, Filipp Furche, Reinhart Ahlrichs
                 Chem. Phys. Lett. 384:103 (2004)
 
       Efficiency, technical details:
         Peter Deglmann, Filipp Furche, Reinhart Ahlrichs
                 Chem. Phys. Lett. 362:511 (2002)
 
       Search of lowest eigenvalues by iterative diagonalization:
         Peter Deglmann, Filipp Furche
                 J. Chem. Phys. 117:9535 (2002)
 
       Vibrational circular dichroism implementation:
        Kevin Reiter, Michael Kuehn, Florian Weigend
                 J. Chem. Phys. 146:054102 (2017)  
 
 


              +--------------------------------------------------+
              | Atomic coordinate, charge and isotop information |
              +--------------------------------------------------+

                    atomic coordinates            atom    charge  isotop
         -0.91745275   -0.64280780   -0.04212083    c      6.000     0
          1.66976401   -1.05219464    0.36119821    c      6.000     0
          2.62784189   -3.48925139    0.28785294    c      6.000     0
          1.08464773   -5.56097980   -0.18886932    c      6.000     0
         -1.47532552   -5.15303656   -0.61095044    c      6.000     0
         -2.46581914   -2.73115337   -0.54644678    c      6.000     0
         -2.00801162    1.62894630   -0.00165703    o      8.000     0
         -0.28267229    4.23364889    1.29835739    s     16.000     0
          2.87967566    0.56824252    0.66680748    h      1.000     0
          4.63654232   -3.77135724    0.59516286    h      1.000     0
          1.86349242   -7.45519488   -0.24214370    h      1.000     0
         -2.72013730   -6.73979011   -0.98734080    h      1.000     0
         -4.46134341   -2.39650765   -0.86599291    h      1.000     0
          1.87273723    4.85017738   -0.54399793    o      8.000     0
 
       center of nuclear mass  :   -0.01928497   -0.03048364    0.16419937
       center of nuclear charge:   -0.00362719   -0.16438051    0.15258841

              +--------------------------------------------------+
              |               basis set information              |
              +--------------------------------------------------+

              we will work with the 1s 3p 5d 7f 9g ... basis set
              ...i.e. with spherical basis functions...

   type   atoms  prim   cont   basis
   ---------------------------------------------------------------------------
    c        6     66     46   aug-cc-pVTZ   [5s4p3d2f|19s6p3d2f]
    o        2     66     46   aug-cc-pVTZ   [5s4p3d2f|19s6p3d2f]
    s        1    122     50   aug-cc-pVTZ   [6s5p3d2f|42s17p3d2f]
    h        5     25     23   aug-cc-pVTZ   [4s3p2d|6s3p2d]
   ---------------------------------------------------------------------------
   total:   14    775    533
   ---------------------------------------------------------------------------

   total number of primitive shells          :  135
   total number of contracted shells         :  173
   total number of cartesian basis functions :  624
   total number of SCF-basis functions       :  533


 symmetry group of the molecule :   c1 

 the group has the following generators :
   c1(z)

    1 symmetry operations found

 there are 1 real representations :   a   

 maximum number of shells which are related by symmetry :  1


 determining totally symmetric integral contributions 
    - equivalent to irreducible tensor elements - 
 which can be formed within each triple of representations :

             representation triple      contributions

              a     a     a               1

    mo occupation :
   irrep   mo's   occupied
    a      533       37
 
 number of basis functions   :                    533
 number of occupied orbitals :                     37
 
  MOs are in ASCII format !


 reading orbital data $scfmo  from file mos
 orbital characterization : scfconv=8
 time elapsed for calculating density matrices :   0.020 sec

 number of non-frozen orbitals          :   533
 number of non-frozen occupied orbitals :    37
 Blocking parameters 
 shells:
    index      start shell   last shell  start bf    last bf    #bf 
       1             1         173             1        624    624
          size of I/O Block in Byte:              130830336
  
           ------------------
           density functional
           ------------------
 PBE0 hybrid functional
 exchange:    3/4 (LDA+PBE) + 1/4 HF
 correlation: LDA (PW) + PBE

 iterations will be done with small grid
  
 spherical integration : Lebedev's spherical grid
 spherical gridsize    :                     5
    i.e. gridpoints    :                   590
 value for diffuse not defined
 radial integration    : Chebyshev 2nd kind (scaling 3)
 radial gridsize       :                     8
 integration cells     :                    14
 partition function    : becke
 partition sharpness   :                     3
  
 
 Derivatives of quadrature weights will be included
 
          Overall gridpoints after grid construction =        234832
 Ordering of quadrature gridpoints disabled.
 
 
 
 
 OCCUPIED-OCCUPIED TENSOR SPACES :

          IRREP   tensor space dimension   number of roots

           a              1369                  36
 
 OCCUPIED-VIRTUAL TENSOR SPACES :

          IRREP   tensor space dimension   number of roots

           a             18352                  36
 
 
 
 
 CONSTRUCTING integral bounds

 setting up bound for integral derivative estimation

 increment for numerical differentiation : 0.00050000
 
 machine precision:   2.220446049250313E-016

 integral neglect threshold       :  0.10E-09
 integral storage threshold THIZE :  0.10E-04
 integral storage threshold THIME :         5

 
 
 
 PREPARING NUMERICAL INTEGRATION
 
 Remaining core memory for DFT =                 15623 MB
 
 Memory needed per atom    =                  4570 KiB
 
     i. e.                    14 atoms per loop

 Calculating ground state density on molecular grid

 Integral of ground state density: N =   74.00001082498194    


 
 
 CONSTRUCTING first deriv. of <mu|x,y,z|nu> -> Dip. deriv.
  dipole integral derivatives will be neglected if
  expon. factor <0.801282E-13
      ...terminated. cpu:       0.63       wall:       0.08
 
 
 
 
 CONSTRUCTING first deriv. of  <mu|nu>
                               <mu|h|nu>    -> RHS
              second deriv. of <mu|nu>      -> Hessian
                               <mu|h|nu>    -> Hessian
                               nucl. rep.   -> Hessian
     integrals are neglected if expon. factor <  8.012820512820513E-015
      ...terminated. cpu:       4.43       wall:       2.12
 
 
 
 
 CONSTRUCTING second deriv. of 2e energy    -> Hessian
   treating Coulomb (and exchange) contribution
     integrals will be neglected if total contribution <  8.012820512820513E-011
      ...terminated. cpu:    6144.54       wall:     767.96
   treating exchange-correlation contribution
      ...terminated. cpu:    1017.39       wall:     128.25
 
 
 
 
 CONSTRUCTING S(i,j)xi
      ...terminated. cpu:       0.31       wall:       0.04
 
 
 
 
 CONSTRUCTING <i|x,y,z|j>*S(i,j)xi          -> Dip. deriv.
      ...terminated. cpu:       0.35       wall:       0.04
 
 
 
 
 CONSTRUCTING epsilon(i)*S(i,j)xi*S(i,j)chi -> Hessian
      ...terminated. cpu:       0.00       wall:       0.00
 
 
 
 
 CONSTRUCTING G(a,i)[S(k,l)xi]              -> RHS
              G(i,j)[S(k,l)xi]*S(i,j)chi    -> Hessian
 
         Maximum core memory set to                  16000 MB
         This corresponds to                  5335 vectors in CAO basis
      ...terminated. cpu:    5794.90       wall:     724.54
 
 
 
 
 CONSTRUCTING G(mu,nu)[D(kap,lam)]xi
 
          Maximum core memory set to                  16000 MB
          Atoms treated simultaneously :                    14
 max of dfo   115.237511742540     
      ...terminated. cpu:    4227.24       wall:     528.55
 
 
 
 
 CONSTRUCTING F(a,i)xi                      -> RHS
              F(i,j)xi*S(i,j)chi            -> Hessian
 
        Maximum core memory set to                 16000 MB
        This corresponds to                  9829 vectors in CAO basis
      ...terminated. cpu:       3.61       wall:       0.77
 
 
 
 
 CONSTRUCTING epsilon(i)*S(a,i)xi           -> RHS
      ...terminated. cpu:       1.54       wall:       0.34
 
 
 
 
 SOLVING CPHF equations
 
 Residuum convergence criterium   :  1.000000000000000E-005
 
 Maximum number of Davidson iterations set to                    25
  Switching to small grid
        preparing numerical integration ....
          Overall gridpoints after grid construction =         74446

 Calculating ground state density on molecular grid

 Integral of ground state density: N =   74.00000100044534    




                       Nonorthonormal Krylov Space Iteration


 total number of roots to be determined: 36


 maximum core memory set to 16000 MB,
 corresponding to     5335 vectors in CAO basis


 maximum number of simultaneously treated vectors (including degeneracy):       36


 Iteration IRREP Converged      Max. Euclidean
                 roots          residual norm

    1       a        0        1.224475597640494D-01
 
    2       a        0        1.573388978271499D-02
 
    3       a        0        1.868127117156159D-03
 
    4       a        0        1.668417514298501D-04
 
    5       a       30        1.458884678146348D-05
 
    6       a       36        9.735286833737254D-06
 

 converged!

  Switching to fine grid
        preparing numerical integration ....
          Overall gridpoints after grid construction =        234832

 Calculating ground state density on molecular grid

 Integral of ground state density: N =   74.00001082498305    



 Iteration IRREP Converged      Max. Euclidean
                 roots          residual norm

    7       a       10        4.817042656757131D-05
 

 NOTE: Residual norms are larger than 1.00D-05 due to mgrid option!

      ...terminated. cpu:   26511.15       wall:    3313.96
 
 
 
 
 CONSTRUCTING <a|x,y,z|i>*U(a,i)xi          -> Dip. deriv.
      ...terminated. cpu:       0.37       wall:       0.05
 
 
 
 
 CONSTRUCTING RHS(a,i)xi*U(a,i)chi          -> Hessian
      ...terminated. cpu:       0.09       wall:       0.01
 
 
 
 

            -----------------------
            permanent dipole moment
            -----------------------

                                   x                y                z
    electronic part       :   -0.0458753670     9.4867843748   -11.1849774415
     nuclear   part       :   -0.2647847415   -11.9997769679    11.1389541450
     total                :   -0.3106601085    -2.5129925931    -0.0460232965

 with reference to the point :   0.0000000        0.0000000        0.0000000
 (given in atomic units)
    | dipole |       :    6.4371236408  debye

   ***  dipole moment & cartesian dipole gradients written onto
        $dipole, $dipgrad,  file=<dipgrad>  ***

             -----------------------------------
             rotational and vibrational analysis
             -----------------------------------


            ==============================================================
            ATOMIC WEIGHTS (average over the natural occurance of isotops)
            ==============================================================
            ('*' denotes special isotop !)
              1     c                12.01115
              2     c                12.01115
              3     c                12.01115
              4     c                12.01115
              5     c                12.01115
              6     c                12.01115
              7     o                15.99940
              8     s                32.06400
              9     h                 1.00797
             10     h                 1.00797
             11     h                 1.00797
             12     h                 1.00797
             13     h                 1.00797
             14     o                15.99940

          -------------------------------------------------
          CARTESIAN FORCE CONSTANT MATRIX (hartree/bohr**2)
         (translational & rotational space projected out)
          -------------------------------------------------

   ATOM              1 c                           2 c 
                  dx        dy        dz        dx        dy        dz
   1 c     dx  0.6597186
           dy -0.0096388 0.6696990
           dz  0.0869399 0.0604574 0.1979203
   2 c     dx -0.2929405 0.0322518-0.0338247 0.6575897
           dy -0.0213976-0.1222293-0.0064931 0.0213898 0.7410281
           dz -0.0390808 0.0013569-0.0782045 0.0871467 0.0529892 0.1464194
   3 c     dx -0.0068742 0.0399632 0.0019962-0.1545761 0.1063406-0.0056609
           dy  0.0830396 0.0127350 0.0148266 0.0467428-0.3241327-0.0165365
           dz  0.0078285 0.0072275 0.0030944-0.0117694-0.0074837-0.0620047
   4 c     dx -0.0588923-0.0266075-0.0102275 0.0557697-0.0353295 0.0041580
           dy -0.0275700-0.0001934-0.0039197 0.0088522-0.0566701-0.0047052
           dz -0.0117348-0.0039632-0.0085262 0.0088426-0.0125742 0.0092558
   5 c     dx  0.0645734 0.0086212 0.0102525-0.0378094 0.0335479-0.0026158
           dy -0.0365789-0.0556290-0.0111534 0.0237086-0.0206341 0.0023107
           dz  0.0068711-0.0048251 0.0029887-0.0035977 0.0039429-0.0040157
   6 c     dx -0.2017871-0.1156613-0.0370235-0.0280377-0.0208241-0.0080332
           dy -0.0624486-0.2094855-0.0281873-0.0475060 0.0394927-0.0056721
           dz -0.0302842-0.0366359-0.0813030-0.0101329 0.0003083 0.0061938
   7 o     dx -0.1488742 0.0957480-0.0128586-0.0222666 0.0516843-0.0022653
           dy  0.0879937-0.2502161-0.0087029 0.0311688-0.0243841 0.0010067
           dz -0.0129932-0.0033026-0.0560911-0.0036286 0.0009909 0.0105274
   8 s     dx  0.0200621-0.0176278 0.0057088-0.0043650 0.0053058 0.0038779
           dy  0.0067145-0.0601336-0.0132395-0.0049965 0.0062920-0.0013760
           dz -0.0036840-0.0115676-0.0060098-0.0005412 0.0062729 0.0007266
   9 h     dx -0.0119692-0.0271421-0.0047201-0.1626620-0.1356671-0.0309868
           dy  0.0025984 0.0096711 0.0003474-0.1375556-0.2324388-0.0358884
           dz -0.0050113-0.0038308 0.0039969-0.0288258-0.0325177-0.0414977
  10 h     dx  0.0024993 0.0020388-0.0007213-0.0093810-0.0001408-0.0022596
           dy  0.0012559-0.0048929-0.0011152 0.0296658-0.0000294 0.0045031
           dz -0.0010387-0.0013256 0.0079445 0.0008643-0.0006066 0.0042141
  11 h     dx -0.0013391-0.0009367-0.0002012-0.0014784-0.0029022-0.0016157
           dy -0.0010876 0.0005230-0.0001063-0.0045072-0.0019478-0.0015040
           dz -0.0002961 0.0000167-0.0004304-0.0018298-0.0012397 0.0056394
  12 h     dx  0.0005042 0.0029939-0.0010721-0.0002364 0.0010219 0.0002317
           dy  0.0040268-0.0024207-0.0001930 0.0009877-0.0002575 0.0002270
           dz -0.0010569-0.0000474 0.0075922 0.0001234 0.0000639-0.0009376
  13 h     dx -0.0170330 0.0078411-0.0031851-0.0009274-0.0040776-0.0015117
           dy -0.0236489 0.0080557-0.0040016-0.0026752-0.0037808-0.0013603
           dz -0.0064252 0.0019787 0.0044639-0.0014759-0.0016877 0.0048447
  14 o     dx -0.0076480 0.0081563-0.0010634 0.0013210 0.0010487-0.0013846
           dy -0.0032584 0.0045167 0.0014806 0.0024732-0.0003081 0.0046490
           dz  0.0099658-0.0055388 0.0025640-0.0013510-0.0019654-0.0011612

   ATOM              3 c                           4 c 
                  dx        dy        dz        dx        dy        dz
   3 c     dx  0.7101125
           dy -0.0140194 0.6756975
           dz  0.0960261 0.0508760 0.1587484
   4 c     dx -0.1960772-0.0710361-0.0301380 0.6592194
           dy -0.1307718-0.2554509-0.0423776-0.0361563 0.7220297
           dz -0.0363504-0.0324127-0.0725916 0.0923097 0.0535044 0.1446931
   5 c     dx -0.0434148-0.0636386-0.0153670-0.3282021 0.0635372-0.0418065
           dy -0.0164868 0.0378685-0.0000261 0.0049933-0.1239370-0.0049387
           dz -0.0108623-0.0078332 0.0061956-0.0480819 0.0050722-0.0708475
   6 c     dx -0.0028342-0.0010882-0.0000553-0.0150488 0.0328488-0.0013840
           dy -0.0143147-0.0538949-0.0072578 0.0770865 0.0079734 0.0132141
           dz -0.0016264-0.0058470-0.0050578 0.0041496 0.0056854 0.0111792
   7 o     dx -0.0056512-0.0106880-0.0032110 0.0045058 0.0045805 0.0013598
           dy -0.0025479 0.0079566 0.0003401 0.0061073-0.0100066 0.0002597
           dz -0.0009619 0.0014961 0.0063750-0.0021232-0.0014145-0.0013746
   8 s     dx -0.0011610-0.0017541-0.0004490 0.0001881 0.0021062-0.0004182
           dy -0.0009863-0.0045048-0.0001262-0.0017161 0.0034313 0.0003691
           dz -0.0001484-0.0038411-0.0001159 0.0031510 0.0018768 0.0007452
   9 h     dx  0.0117553 0.0122035 0.0025213-0.0000191 0.0031230-0.0006164
           dy -0.0165172-0.0155736-0.0044216 0.0036200-0.0028046-0.0001565
           dz -0.0001079-0.0006951 0.0018910-0.0004185-0.0002994 0.0071685
  10 h     dx -0.3183141 0.0360895-0.0434616-0.0147520 0.0064319-0.0023286
           dy  0.0362426-0.0626635 0.0036016-0.0245082 0.0079173-0.0036639
           dz -0.0431132 0.0040025-0.0435330-0.0058989 0.0013430 0.0022660
  11 h     dx  0.0106377-0.0179740-0.0001843-0.0965510 0.0974883-0.0021154
           dy  0.0133620-0.0182868 0.0003063 0.0975187-0.2930277-0.0092444
           dz  0.0030087-0.0052078 0.0011716-0.0018083-0.0093442-0.0306528
  12 h     dx -0.0057274 0.0026074-0.0018759-0.0123665-0.0266825-0.0053743
           dy  0.0010091 0.0017852-0.0002235 0.0041989 0.0059959 0.0011254
           dz -0.0020416 0.0003196 0.0061386-0.0026551-0.0046061 0.0019982
  13 h     dx  0.0006473-0.0008341 0.0001623 0.0020764 0.0026115-0.0006881
           dy -0.0002539-0.0012054-0.0001130 0.0013246-0.0049318-0.0009386
           dz  0.0002715-0.0004658-0.0006400-0.0005479-0.0006211 0.0069602
  14 o     dx  0.0014775 0.0003497-0.0000267 0.0001495-0.0003990 0.0003046
           dy -0.0010195-0.0003301-0.0003219 0.0005045-0.0003254-0.0005806
           dz -0.0004295 0.0013186 0.0003285-0.0018691-0.0001940-0.0002735

   ATOM              5 c                           6 c 
                  dx        dy        dz        dx        dy        dz
   5 c     dx  0.6797148
           dy  0.0138980 0.7054573
           dz  0.0994729 0.0584736 0.1575751
   6 c     dx -0.1561278 0.1128623-0.0061394 0.7050811
           dy  0.0537230-0.3229138-0.0156112-0.0462232 0.6875090
           dz -0.0122753-0.0053626-0.0605605 0.0994071 0.0504071 0.1466298
   7 o     dx -0.0068615-0.0005642-0.0015661 0.0199858-0.0179300-0.0012839
           dy -0.0085702 0.0087994-0.0017555 0.0097947-0.0795042-0.0069702
           dz -0.0003277-0.0023718 0.0045248 0.0038888-0.0124761 0.0101284
   8 s     dx  0.0006490 0.0003507-0.0001958-0.0012719 0.0071631 0.0002157
           dy  0.0009623-0.0043046 0.0004997 0.0033120 0.0117636 0.0013462
           dz -0.0031343 0.0008025 0.0010878 0.0012709 0.0001441 0.0011871
   9 h     dx -0.0006454 0.0011159 0.0000980-0.0052288 0.0020587-0.0014331
           dy  0.0003426 0.0004626 0.0002202 0.0017692-0.0002217-0.0001662
           dz -0.0002354 0.0003916-0.0007351-0.0020077-0.0002160 0.0048909
  10 h     dx -0.0003424-0.0043801-0.0015695 0.0007740-0.0000498 0.0003131
           dy -0.0030158-0.0034526-0.0015278 0.0000379-0.0012798 0.0000025
           dz -0.0012175-0.0019622 0.0060865 0.0003415 0.0002996-0.0008867
  11 h     dx -0.0061465 0.0301305 0.0017843-0.0053691-0.0004329-0.0021049
           dy -0.0011001-0.0018898-0.0005273 0.0011883 0.0020914-0.0002247
           dz -0.0017708 0.0053197 0.0012308-0.0019100-0.0007814 0.0056190
  12 h     dx -0.1575857-0.1271519-0.0342625 0.0096719 0.0099847 0.0020179
           dy -0.1270088-0.2199413-0.0408024-0.0208696-0.0185722-0.0057076
           dz -0.0341829-0.0406593-0.0451695-0.0007856-0.0007114 0.0030249
  13 h     dx -0.0073029-0.0013531-0.0017378-0.3213960 0.0410048-0.0468613
           dy  0.0290086 0.0002895 0.0050001 0.0425942-0.0628565 0.0043433
           dz  0.0012427-0.0002215 0.0017274-0.0465778 0.0037387-0.0413607
  14 o     dx -0.0004987-0.0005441-0.0002133 0.0015885-0.0021154-0.0001016
           dy -0.0003074-0.0001751-0.0003261 0.0002591-0.0001016-0.0011786
           dz  0.0019650-0.0006025-0.0000883-0.0009919 0.0031097 0.0003155

   ATOM              7 o                           8 s 
                  dx        dy        dz        dx        dy        dz
   7 o     dx  0.2103893
           dy -0.0938124 0.3884201
           dz  0.0308472 0.0403738 0.0637907
   8 s     dx -0.0437093-0.0156141-0.0183864 0.2521225
           dy -0.0165011-0.0331924-0.0351626 0.0714289 0.1194966
           dz -0.0087638-0.0439094-0.0476596-0.1806103 0.0201461 0.2472100
   9 h     dx  0.0020236 0.0011634 0.0008062-0.0015604 0.0007299 0.0009368
           dy -0.0009866-0.0034020-0.0000766 0.0057895-0.0000969-0.0020151
           dz  0.0011098-0.0005758-0.0029024-0.0004406-0.0017819 0.0003915
  10 h     dx -0.0009945 0.0008843 0.0001558-0.0004967-0.0005182-0.0000710
           dy  0.0017368-0.0007490 0.0001853 0.0003642 0.0005954-0.0000001
           dz  0.0002095 0.0006032-0.0005794 0.0001426-0.0004588-0.0000831
  11 h     dx  0.0003403 0.0003813 0.0001676-0.0001748-0.0001413 0.0001793
           dy  0.0000879-0.0002794-0.0000410 0.0001917-0.0000109 0.0001234
           dz  0.0002960 0.0001021-0.0004959-0.0000714-0.0001291-0.0002551
  12 h     dx  0.0002927 0.0001168 0.0002404-0.0000000 0.0001461-0.0000070
           dy -0.0011407-0.0022264-0.0008189 0.0007165 0.0003356 0.0000378
           dz  0.0002271-0.0006893-0.0002538 0.0000876 0.0003321 0.0001049
  13 h     dx  0.0020784 0.0011830 0.0012733-0.0001009-0.0003874 0.0000322
           dy  0.0009473 0.0023634 0.0010774-0.0004088-0.0003544 0.0001074
           dz  0.0010817 0.0011106-0.0030322-0.0000492-0.0004004-0.0005537
  14 o     dx -0.0112587-0.0182488 0.0010416-0.2201817-0.0580469 0.1913898
           dy -0.0131616-0.0035793 0.0115408-0.0580119-0.0393167 0.0318223
           dz -0.0051826 0.0188068 0.0170426 0.1905882 0.0299812-0.1967758

   ATOM              9 h                          10 h 
                  dx        dy        dz        dx        dy        dz
   9 h     dx  0.1681129
           dy  0.1436795 0.2441498
           dz  0.0337105 0.0400618 0.0327173
  10 h     dx  0.0008859 0.0000555 0.0008901 0.3400815
           dy -0.0006915 0.0011418 0.0004347-0.0401478 0.0622340
           dz  0.0006310 0.0003695-0.0041974 0.0486047-0.0030286 0.0330748
  11 h     dx  0.0004149-0.0007135-0.0001130 0.0008409 0.0007003 0.0008833
           dy  0.0007637-0.0007148-0.0000115-0.0005920 0.0009842 0.0003446
           dz  0.0001193-0.0001855 0.0006074 0.0007235 0.0006165-0.0036640
  12 h     dx  0.0000349-0.0000764 0.0001448-0.0009738-0.0013370-0.0003666
           dy -0.0001041-0.0000339 0.0000584 0.0002276 0.0001434-0.0000016
           dz  0.0001259 0.0000560-0.0008161-0.0002469-0.0002847 0.0002712
  13 h     dx -0.0009312 0.0005928-0.0000526-0.0001411 0.0000270 0.0001342
           dy -0.0012306 0.0003963-0.0002046 0.0000236 0.0000887 0.0001051
           dz -0.0003274 0.0001156-0.0004605 0.0001229 0.0000936-0.0008031
  14 o     dx -0.0002114-0.0025981 0.0013575 0.0003139-0.0003303-0.0001761
           dy -0.0000022-0.0005351-0.0008138 0.0000775-0.0000377 0.0003158
           dz -0.0008653 0.0017394-0.0010543-0.0001517 0.0001831-0.0001104

   ATOM             11 h                          12 h 
                  dx        dy        dz        dx        dy        dz
  11 h     dx  0.0981195
           dy -0.1062886 0.3121622
           dz  0.0027315 0.0103893 0.0241602
  12 h     dx  0.0010031 0.0005590 0.0009119 0.1645817
           dy -0.0007517 0.0008288 0.0002890 0.1386020 0.2333325
           dz  0.0007915 0.0005829-0.0036383 0.0385499 0.0450861 0.0358844
  13 h     dx -0.0004524-0.0000639-0.0002108 0.0007792 0.0004900 0.0009931
           dy  0.0014636-0.0002319 0.0001811-0.0006774 0.0011570 0.0004171
           dz -0.0000649-0.0000966 0.0006916 0.0008343 0.0006441-0.0041258
  14 o     dx  0.0001548-0.0000318 0.0001063 0.0000221-0.0003838 0.0000702
           dy -0.0000231-0.0002006-0.0000268-0.0001067-0.0001265 0.0001406
           dz -0.0001380 0.0000095 0.0000165 0.0000274 0.0002792-0.0000731

   ATOM             13 h                          14 o 
                  dx        dy        dz        dx        dy        dz
  13 h     dx  0.3424683
           dy -0.0469640 0.0610299
           dz  0.0517318-0.0043917 0.0323300
  14 o     dx  0.0002353 0.0004969 0.0001834 0.2345358
           dy -0.0000702-0.0000196 0.0002036 0.0726466 0.0405391
           dz -0.0000796-0.0002215-0.0000418-0.1914876-0.0469051 0.1793113
 

   *** projected hessian written onto $hessian (projected), file=<hessian> ***

 dipole moment in principle axis system (a.u.) :
    -0.2508323959    -2.5110926402     0.2127357076
 norm :   2.53254015167950     

 rotational constants b for rotations around axis of inertia
 and optical intensities for (1 <-- 0) transition

   b   :     0.0282873137     0.1272508038     0.0240373483   (cm**(-1))
   b   :         848.0323        3814.8831         720.6216     (MHz)
  int. :     0.0629168908     6.3055862478     0.0452564813     (a.u.)

   x   :     0.9981513389     0.0191225587    -0.0576908342
   y   :    -0.0245966851     0.9951041760    -0.0957218991
   z   :     0.0555779424     0.0969639451     0.9937349172

   ***  normal modes written onto $vibrational normal modes, file=<vib_normal_modes>  ***

   ***  vibrational spectroscopic data written onto$vibrational spectrum   
        file=<vibspectrum>  ***

          ---------------------------------------------------
          NORMAL MODES and VIBRATIONAL FREQUENCIES (cm**(-1))
          ---------------------------------------------------

 imaginary wave numbers indicate a negative curvature of the energy surface.
 zero frequency modes have no physical meaning except being generators of
 translations and rotations. each vibrational normal mode - given in terms of
 cartesian displacement vectors of all atoms - has been normalized to unity.
 to obtain mass-weigthed normal coordinates in a.u. divide the tabulated
 modes by sqrt(reduced mass * 1822.88853).
 band intensities or cross sections refer to independent non-degenerate normal
 modes, that is, the intensities of degenerate modes have yet to be added.
 dDIP/dQ is the normal mode derivative of the dipole moment.


       mode               1        2        3        4        5        6

     frequency           0.00     0.00     0.00     0.00     0.00     0.00

     symmetry                                                             

        IR                -        -        -        -        -        - 
|dDIP/dQ|   (a.u.)     0.0000   0.0000   0.0000   0.0000   0.0000   0.0000
intensity (km/mol)       0.00     0.00     0.00     0.00     0.00     0.00
intensity (  %   )       0.00     0.00     0.00     0.00     0.00     0.00
 
       RAMAN              -        -        -        -        -        - 
 
  1   c           x  -0.09151 -0.02420 -0.19501 -0.05586  0.09493 -0.01206
                  y   0.00578 -0.14053  0.00355 -0.16282 -0.11019 -0.01390
                  z   0.16359 -0.16140 -0.03382  0.09493  0.07331 -0.04468
  2   c           x  -0.08787 -0.05234 -0.17110 -0.05302  0.13078  0.02025
                  y   0.05670 -0.10287  0.02991 -0.23075 -0.00753  0.01780
                  z   0.19196  0.05737 -0.16043  0.00774 -0.05243 -0.21981
  3   c           x  -0.05191 -0.01558 -0.13862 -0.11953  0.22803  0.02803
                  y   0.06827 -0.09172  0.04606 -0.25593  0.03283  0.01980
                  z   0.27724  0.16709 -0.27291 -0.02421 -0.12299 -0.18475
  4   c           x  -0.01895  0.04988 -0.12940 -0.19004  0.29126  0.00373
                  y   0.03017 -0.11715  0.03712 -0.21545 -0.02593 -0.00943
                  z   0.33610  0.06569 -0.26388  0.02815 -0.07230  0.02097
  5   c           x  -0.02245  0.07959 -0.15412 -0.19356  0.25459 -0.02998
                  y  -0.02097 -0.15470  0.01170 -0.14825 -0.12727 -0.04181
                  z   0.30795 -0.15081 -0.13853  0.11443  0.05215  0.19413
  6   c           x  -0.05814  0.04375 -0.18677 -0.12774  0.15755 -0.03834
                  y  -0.03330 -0.16637 -0.00468 -0.12221 -0.16887 -0.04437
                  z   0.22297 -0.26302 -0.02504  0.14747  0.12407  0.16215
  7   o           x  -0.12487 -0.05616 -0.22652  0.00520  0.00296 -0.02140
                  y  -0.00880 -0.15376 -0.01361 -0.13416 -0.15568 -0.01807
                  z   0.08295 -0.27998  0.07980  0.13137  0.14835 -0.06264
  8   s           x  -0.17037 -0.19632 -0.20701  0.11748 -0.04363  0.06143
                  y   0.05890 -0.11570 -0.02563 -0.17930 -0.09804  0.04815
                  z   0.00770 -0.17023  0.07798  0.07279  0.09471 -0.30524
  9   h           x  -0.11327 -0.09799 -0.18129 -0.00013  0.07817  0.03424
                  y   0.08434 -0.08378  0.03888 -0.26249  0.03926  0.03774
                  z   0.14593  0.13692 -0.16762 -0.03331 -0.09222 -0.38093
 10   h           x  -0.04958 -0.03740 -0.12084 -0.11657  0.25411  0.05250
                  y   0.10762 -0.06255  0.06669 -0.30867  0.11260  0.04416
                  z   0.29809  0.33649 -0.37018 -0.09191 -0.22024 -0.32228
 11   h           x   0.00898  0.07815 -0.10399 -0.24161  0.36702  0.01006
                  y   0.03978 -0.10800  0.05007 -0.23593  0.00681 -0.00753
                  z   0.40259  0.15379 -0.35283  0.00217 -0.12874  0.04568
 12   h           x   0.00286  0.13066 -0.14756 -0.24795  0.30248 -0.04943
                  y  -0.05143 -0.17511  0.00425 -0.11560 -0.17475 -0.06503
                  z   0.35267 -0.23367 -0.12882  0.15665  0.09393  0.35638
 13   h           x  -0.06117  0.06592 -0.20586 -0.12973  0.12872 -0.06400
                  y  -0.07285 -0.19553 -0.02477 -0.06983 -0.24797 -0.06920
                  z   0.20048 -0.43199  0.07315  0.21472  0.22126  0.29640
 14   o           x  -0.16870 -0.05197 -0.29783  0.07155 -0.15559 -0.07938
                  y   0.03004 -0.11168  0.05887 -0.23622  0.01036 -0.02067
                  z   0.00000  0.00000  0.00000  0.00000  0.00000 -0.49301

reduced mass(g/mol)     7.544    8.316    8.728    8.267    6.639    9.637


       mode               7        8        9       10       11       12

     frequency          57.97   105.60   158.09   242.64   260.84   408.04

     symmetry            a        a        a        a        a        a   

        IR               YES      YES      YES      YES      YES      YES
|dDIP/dQ|   (a.u.)     0.0010   0.0023   0.0010   0.0009   0.0022   0.0039
intensity (km/mol)       1.61     9.61     1.71     1.41     8.41    27.66
intensity (  %   )       0.63     3.76     0.67     0.55     3.29    10.83
 
       RAMAN             YES      YES      YES      YES      YES      YES
 
  1   c           x  -0.02064  0.09948 -0.07566  0.15319 -0.20598 -0.10535
                  y  -0.00142 -0.04767  0.08036  0.03380 -0.09373  0.04898
                  z   0.16176 -0.03439 -0.16009 -0.08180 -0.05748 -0.13648
  2   c           x  -0.04007  0.06602 -0.06347  0.17204 -0.17598 -0.14009
                  y  -0.01403 -0.15610  0.17283 -0.03240 -0.01195 -0.12929
                  z   0.27424  0.04369 -0.14405 -0.22995 -0.15503  0.00881
  3   c           x  -0.01749 -0.03478 -0.01788  0.02912 -0.04172 -0.02142
                  y  -0.00155 -0.20061  0.19295 -0.11014  0.04764 -0.09121
                  z   0.13599  0.11821  0.09214 -0.05328 -0.00365 -0.01795
  4   c           x   0.03158 -0.10655  0.02124 -0.09039  0.07310  0.12076
                  y   0.02426 -0.14008  0.13207 -0.07753 -0.06462 -0.18561
                  z  -0.12801  0.07822  0.23087  0.19587  0.12713 -0.06416
  5   c           x   0.05217 -0.06584  0.04797 -0.04476  0.08026  0.10778
                  y   0.03879 -0.02994  0.06255  0.03885 -0.17331 -0.16140
                  z  -0.24593 -0.05815  0.01876  0.00842 -0.03557  0.07054
  6   c           x   0.02818  0.03946 -0.00549  0.10963 -0.06860  0.01686
                  y   0.02318  0.01357  0.05279  0.09421 -0.21155 -0.14179
                  z  -0.09983 -0.11258 -0.20595 -0.20389 -0.15842 -0.00632
  7   o           x  -0.06297  0.15701 -0.11429  0.03013 -0.17332  0.07988
                  y  -0.02517 -0.01966  0.06938 -0.03811 -0.09226  0.18465
                  z   0.28498 -0.02929 -0.00824  0.24208  0.19320 -0.30636
  8   s           x   0.04863  0.09100  0.15626 -0.11817  0.12339  0.05551
                  y   0.05930 -0.02623 -0.23723  0.11805  0.14292  0.33476
                  z  -0.04720  0.09534  0.14508  0.01334 -0.02454  0.27350
  9   h           x  -0.06254  0.11006 -0.10046  0.24532 -0.23757 -0.12514
                  y  -0.03480 -0.20676  0.21538 -0.06745  0.04333 -0.16226
                  z   0.45889  0.13594 -0.23861 -0.32235 -0.20786  0.12919
 10   h           x  -0.03219 -0.06106 -0.02424  0.01344 -0.02819 -0.00730
                  y  -0.00767 -0.28746  0.25237 -0.20373  0.18949  0.05913
                  z   0.22684  0.20930  0.18668 -0.03332  0.03993  0.03572
 11   h           x   0.05271 -0.18742  0.04119 -0.20633  0.15281  0.17239
                  y   0.03634 -0.17492  0.13349 -0.13235 -0.03615 -0.16355
                  z  -0.24586  0.14216  0.45963  0.45450  0.28981 -0.09248
 12   h           x   0.08842 -0.11746  0.10004 -0.12621  0.17208  0.07723
                  y   0.06120  0.02370  0.01226  0.08878 -0.24384 -0.16745
                  z  -0.46027 -0.11325  0.05956  0.06829 -0.04825  0.18278
 13   h           x   0.04606  0.06887  0.00012  0.13777 -0.08459 -0.02829
                  y   0.03320  0.10271 -0.00914  0.19698 -0.37969 -0.36627
                  z  -0.20128 -0.20144 -0.30639 -0.26918 -0.24475  0.01579
 14   o           x  -0.06562 -0.32593 -0.12988 -0.04420  0.18208 -0.18060
                  y  -0.15122  0.52745 -0.15269 -0.15111  0.21373 -0.30939
                  z  -0.25015 -0.19894 -0.16628  0.01135  0.07922 -0.14956

reduced mass(g/mol)     6.273   10.069    8.331    5.910    7.316   13.313


       mode              13       14       15       16       17       18

     frequency         427.21   523.28   557.31   601.89   642.60   706.44

     symmetry            a        a        a        a        a        a   

        IR               YES      YES      YES      YES      YES      YES
|dDIP/dQ|   (a.u.)     0.0002   0.0026   0.0016   0.0062   0.0052   0.0045
intensity (km/mol)       0.07    12.45     4.75    68.21    47.82    36.30
intensity (  %   )       0.03     4.87     1.86    26.70    18.71    14.21
 
       RAMAN             YES      YES      YES      YES      YES      YES
 
  1   c           x  -0.00509  0.06480  0.00650  0.17414 -0.02167  0.01443
                  y  -0.00266  0.05674 -0.24302 -0.06565 -0.10742  0.00758
                  z   0.01100 -0.24756 -0.13047  0.04886  0.00141 -0.07682
  2   c           x  -0.04168  0.02795 -0.01460  0.20436  0.09079 -0.01551
                  y  -0.01998  0.01039  0.02689  0.26950 -0.19258 -0.00596
                  z   0.21573 -0.00638 -0.01629  0.09698  0.01491  0.06796
  3   c           x   0.03622 -0.03087  0.08460 -0.15919  0.34411  0.02046
                  y   0.02450 -0.03043  0.15348  0.14548 -0.11796  0.01964
                  z  -0.20644  0.10818  0.07869 -0.03950  0.02461 -0.14389
  4   c           x   0.00098  0.02651 -0.03716 -0.17651  0.01179 -0.01581
                  y   0.00314 -0.00515  0.27384  0.09808  0.14149 -0.00582
                  z   0.00552 -0.17796 -0.05779  0.01520  0.04813  0.08438
  5   c           x  -0.03454 -0.02251 -0.12145 -0.19364  0.01327  0.02697
                  y  -0.01633 -0.00827 -0.01526 -0.21856  0.29366  0.01193
                  z   0.20090  0.11665  0.03398 -0.07351  0.01109 -0.15033
  6   c           x   0.03540  0.04860 -0.27652  0.16635 -0.20528 -0.01150
                  y   0.02317  0.01521 -0.08957 -0.12167  0.12456 -0.00783
                  z  -0.21364 -0.01671 -0.09244  0.03490 -0.00002  0.06456
  7   o           x  -0.00713 -0.10909  0.38128 -0.14960 -0.29724  0.00543
                  y  -0.00010 -0.03120 -0.14951 -0.25690 -0.25877  0.00058
                  z   0.00815  0.06956  0.07436 -0.14766 -0.15960  0.00326
  8   s           x   0.00401  0.01114 -0.02365  0.06513  0.06360  0.00041
                  y  -0.01311 -0.00161  0.04827  0.08682  0.07801 -0.00166
                  z  -0.00901 -0.00528  0.01918  0.06484  0.05394 -0.00252
  9   h           x  -0.07288  0.01897 -0.31741  0.27115 -0.00618 -0.07521
                  y  -0.03699 -0.06053  0.22839  0.24216 -0.11286 -0.03926
                  z   0.41529  0.39070  0.10613 -0.02799 -0.02218  0.46313
 10   h           x   0.08268 -0.09563  0.04433 -0.17396  0.34832 -0.02201
                  y   0.05756 -0.08069  0.05574 -0.14130 -0.17040 -0.00247
                  z  -0.48087  0.48886  0.23684 -0.19175 -0.05118  0.11164
 11   h           x  -0.00020  0.02133 -0.01979  0.10372 -0.36737 -0.10937
                  y   0.00266 -0.00763  0.27911  0.21236 -0.01284 -0.06002
                  z   0.00490 -0.15722 -0.02930  0.01899 -0.05229  0.64634
 12   h           x  -0.07735 -0.12458  0.09352 -0.20011  0.16048 -0.02341
                  y  -0.04071 -0.01909 -0.23345 -0.18537  0.19234 -0.01791
                  z   0.44539  0.50018  0.24320 -0.18007 -0.05091  0.14183
 13   h           x   0.07323 -0.01910 -0.28805  0.23266 -0.17790 -0.08581
                  y   0.04407 -0.00686 -0.00601  0.22680  0.21353 -0.05166
                  z  -0.42754  0.38200  0.08285 -0.01343 -0.04582  0.48287
 14   o           x   0.00528  0.01335 -0.03393 -0.00728 -0.00245 -0.00065
                  y   0.01580  0.01655 -0.04747 -0.01991 -0.01090 -0.00113
                  z   0.00278  0.00794 -0.01473 -0.01970 -0.00965  0.00122

reduced mass(g/mol)     3.032    2.746    7.096    7.397    8.056    1.755


       mode              19       20       21       22       23       24

     frequency         767.07   833.39   848.95   896.16   966.47   981.76

     symmetry            a        a        a        a        a        a   

        IR               YES      YES      YES      YES      YES      YES
|dDIP/dQ|   (a.u.)     0.0049   0.0006   0.0057   0.0023   0.0006   0.0007
intensity (km/mol)      41.89     0.56    58.33     9.61     0.64     0.95
intensity (  %   )      16.39     0.22    22.83     3.76     0.25     0.37
 
       RAMAN             YES      YES      YES      YES      YES      YES
 
  1   c           x   0.03355 -0.00448  0.01744  0.02074 -0.00282 -0.00097
                  y   0.02346 -0.00132 -0.03987  0.01627 -0.00015  0.00048
                  z  -0.20174  0.00640  0.00754 -0.13305  0.00322 -0.00616
  2   c           x  -0.01603 -0.00356 -0.21230 -0.01684  0.00036  0.00760
                  y  -0.00866 -0.00313  0.00061 -0.00428  0.00536  0.01728
                  z   0.06481  0.06856 -0.03646  0.12059  0.05883  0.07948
  3   c           x  -0.00077 -0.00665 -0.29777 -0.00626  0.00655  0.01328
                  y   0.00122 -0.01183  0.07325 -0.00532  0.00224  0.00696
                  z  -0.00971  0.07260 -0.03790  0.01589 -0.04736 -0.11497
  4   c           x  -0.02281 -0.00085  0.06126  0.02178  0.00938 -0.00151
                  y  -0.01682 -0.00523 -0.12978 -0.00165 -0.00793 -0.03370
                  z   0.14920  0.00762 -0.00233 -0.09253 -0.03591  0.06634
  5   c           x   0.00327  0.01217  0.16087  0.00408 -0.01714  0.01302
                  y   0.00235  0.00453  0.26752  0.00558 -0.00759  0.01235
                  z  -0.00269 -0.07061  0.05377  0.00142  0.11662 -0.03556
  6   c           x  -0.01824  0.00753  0.12262 -0.03140  0.00344 -0.03094
                  y  -0.00773  0.00685  0.13767 -0.01124  0.00862 -0.00075
                  z   0.06487 -0.08093  0.02317  0.11121 -0.09155  0.00575
  7   o           x   0.00493 -0.00187  0.11591  0.00107  0.00098  0.00067
                  y  -0.00224  0.00552 -0.31972 -0.00677  0.00043 -0.00244
                  z   0.04240 -0.00083 -0.03370  0.03014 -0.00269  0.00232
  8   s           x  -0.00222 -0.00161  0.02021 -0.00275 -0.00290 -0.00535
                  y  -0.00048  0.00053  0.02413  0.00056 -0.00071 -0.00092
                  z  -0.00212  0.00120  0.00693  0.00174  0.00276  0.00565
  9   h           x  -0.01464  0.08428 -0.15826  0.09533  0.05549  0.09080
                  y  -0.01607  0.04376 -0.05230  0.04469  0.03250  0.05871
                  z   0.09373 -0.50466 -0.06663 -0.56152 -0.28535 -0.43919
 10   h           x   0.07179  0.07858 -0.25204  0.02538 -0.04079 -0.12175
                  y   0.05110  0.03137  0.43550  0.01694 -0.03246 -0.08186
                  z  -0.43889 -0.44103 -0.03176 -0.16634  0.23461  0.69588
 11   h           x   0.12377  0.00595  0.05497 -0.09815 -0.04277  0.07432
                  y   0.06636 -0.00089 -0.12042 -0.06870 -0.03650  0.01027
                  z  -0.66906 -0.06101 -0.01802  0.54061  0.21458 -0.40531
 12   h           x   0.09115 -0.07754 -0.10634  0.01386  0.12599 -0.04462
                  y   0.04596 -0.04774  0.47834  0.01238  0.07010 -0.01767
                  z  -0.47768  0.44378  0.06592 -0.06144 -0.68515  0.27420
 13   h           x  -0.02309 -0.10361  0.11772  0.07813 -0.10815 -0.01404
                  y  -0.01887 -0.06481  0.10232  0.04080 -0.07270 -0.01294
                  z   0.08341  0.53713  0.09457 -0.51902  0.52012 -0.11531
 14   o           x  -0.00037  0.00274 -0.02372  0.00317  0.00564  0.01066
                  y  -0.00025  0.00344 -0.01406  0.00322  0.00304  0.00506
                  z   0.00197 -0.00268  0.01117 -0.00292 -0.00564 -0.01045

reduced mass(g/mol)     1.858    1.253    6.097    1.641    1.336    1.325


       mode              25       26       27       28       29       30

     frequency        1010.10  1014.81  1050.81  1096.43  1158.72  1179.42

     symmetry            a        a        a        a        a        a   

        IR               YES      YES      YES      YES      YES      YES
|dDIP/dQ|   (a.u.)     0.0055   0.0092   0.0034   0.0021   0.0010   0.0024
intensity (km/mol)      54.06   150.80    20.88     7.79     1.69    10.30
intensity (  %   )      21.16    59.02     8.17     3.05     0.66     4.03
 
       RAMAN             YES      YES      YES      YES      YES      YES
 
  1   c           x  -0.01736 -0.03301 -0.00381 -0.04110 -0.00510  0.00576
                  y   0.02367  0.06186  0.00688 -0.02064  0.00466 -0.04838
                  z   0.01937 -0.00738  0.00209 -0.01149  0.00042 -0.00720
  2   c           x   0.25297 -0.12498  0.05541 -0.00115  0.00399 -0.02944
                  y   0.24514 -0.15110 -0.04294  0.09552 -0.01630  0.04000
                  z   0.02783  0.01602  0.00446  0.00722 -0.00105 -0.00020
  3   c           x  -0.09357  0.06401 -0.14269  0.07920  0.00396 -0.02334
                  y  -0.00525  0.00073 -0.04525 -0.00887 -0.02311 -0.05230
                  z   0.01568 -0.03147 -0.02985  0.01480 -0.00145 -0.00872
  4   c           x   0.10399 -0.06456 -0.07559 -0.07634  0.04749  0.01311
                  y  -0.26276  0.18811  0.15718 -0.03690  0.02150 -0.01033
                  z  -0.01717  0.01735  0.00159 -0.01723  0.01042  0.00080
  5   c           x   0.07070 -0.04565  0.13778  0.01507 -0.04404  0.04754
                  y   0.06156 -0.05696  0.07850  0.05566  0.02443  0.00269
                  z   0.01740 -0.01152  0.03180  0.00774 -0.00559  0.00899
  6   c           x  -0.33911  0.18166  0.00736  0.08213 -0.00766  0.00398
                  y   0.00757 -0.01503 -0.07273 -0.06277 -0.00483  0.03186
                  z  -0.05689  0.02262 -0.00566  0.01017 -0.00146  0.00428
  7   o           x   0.00837  0.01442 -0.00282  0.01611  0.00003 -0.00977
                  y  -0.00868  0.01909  0.01390  0.00168 -0.00430  0.01993
                  z  -0.00241  0.02482  0.00081  0.00377 -0.00157  0.00122
  8   s           x   0.06460  0.22817 -0.00774  0.00453 -0.00008  0.00581
                  y   0.01101  0.04644 -0.00225  0.00113 -0.00036  0.00248
                  z  -0.05963 -0.21783  0.00517 -0.00368  0.00059 -0.00362
  9   h           x   0.38760  0.05983  0.29864 -0.32528 -0.05220 -0.44156
                  y   0.10581 -0.23645 -0.23676  0.35371  0.02613  0.36554
                  z   0.30827 -0.36796  0.02686  0.00573 -0.00253 -0.03553
 10   h           x  -0.05570  0.00831 -0.20090  0.06873 -0.03171 -0.08943
                  y  -0.08467 -0.02379 -0.44116 -0.16018 -0.32334 -0.60040
                  z  -0.20492  0.25894 -0.07723 -0.01357 -0.04156 -0.07627
 11   h           x   0.08292 -0.00816 -0.10541 -0.50054  0.60371  0.12510
                  y  -0.27785  0.21615  0.16170 -0.21026  0.24650  0.03588
                  z   0.04926 -0.05602 -0.00551 -0.11012  0.13527  0.02687
 12   h           x   0.12876 -0.00985  0.41423 -0.22379 -0.45858  0.23700
                  y  -0.00342 -0.07627 -0.13330  0.25473  0.35906 -0.14789
                  z   0.01528 -0.00727  0.06903 -0.01251 -0.04797  0.02496
 13   h           x  -0.37756  0.18581 -0.05193  0.02432 -0.05083  0.06046
                  y  -0.22630  0.05124 -0.53240 -0.52232 -0.30612  0.42452
                  z  -0.10992  0.07411 -0.06857 -0.05463 -0.03981  0.05512
 14   o           x  -0.13150 -0.46964  0.01216 -0.00832  0.00049 -0.00825
                  y  -0.03524 -0.12853  0.00379 -0.00253  0.00013 -0.00242
                  z   0.11359  0.41370 -0.01101  0.00686 -0.00080  0.00787

reduced mass(g/mol)     5.496   11.709    2.011    1.451    1.078    1.150


       mode              31       32       33       34       35       36

     frequency        1293.91  1324.23  1370.01  1484.42  1523.03  1624.73

     symmetry            a        a        a        a        a        a   

        IR               YES      YES      YES      YES      YES      YES
|dDIP/dQ|   (a.u.)     0.0120   0.0026   0.0032   0.0003   0.0096   0.0024
intensity (km/mol)     255.50    11.88    18.17     0.20   163.83    10.37
intensity (  %   )     100.00     4.65     7.11     0.08    64.12     4.06
 
       RAMAN             YES      YES      YES      YES      YES      YES
 
  1   c           x   0.09173 -0.18799 -0.18037 -0.12578 -0.06866  0.29606
                  y  -0.38201 -0.02896 -0.04859 -0.05466  0.18199  0.11640
                  z  -0.03143 -0.03692 -0.04198 -0.02783  0.00888  0.06579
  2   c           x   0.11393  0.01159  0.18838 -0.01921  0.11696 -0.20991
                  y  -0.08198  0.03225 -0.13402  0.14715 -0.03523  0.00393
                  z   0.01410  0.00392  0.02095  0.00946  0.01667 -0.03463
  3   c           x  -0.11339  0.03799  0.02908  0.06991 -0.05066  0.17038
                  y   0.06123  0.07203  0.14005 -0.16429 -0.14321  0.18011
                  z  -0.01337  0.01310  0.01854 -0.00388 -0.02286  0.04743
  4   c           x  -0.01916 -0.00682 -0.24193 -0.10332 -0.04919 -0.35135
                  y   0.00850  0.00010 -0.10262 -0.04310  0.09801 -0.15187
                  z  -0.00288 -0.00128 -0.05403 -0.02227  0.00100 -0.07785
  5   c           x   0.08222  0.07184  0.10585 -0.06887  0.13673  0.22264
                  y   0.09128 -0.03975 -0.08977  0.16858 -0.05575  0.01709
                  z   0.02408  0.00919  0.01148  0.00422  0.01882  0.04170
  6   c           x   0.00317  0.02841  0.05260  0.08934 -0.06027 -0.14113
                  y  -0.10232 -0.00916  0.24802 -0.11283 -0.11769 -0.17680
                  z  -0.00726  0.00445  0.03557  0.00496 -0.02356 -0.04474
  7   o           x  -0.09212  0.03383  0.00626  0.02528  0.02451 -0.02598
                  y   0.20329 -0.01436 -0.02264  0.00863 -0.04528  0.00430
                  z   0.00854  0.00587  0.00193  0.00531 -0.00059 -0.00332
  8   s           x   0.01055 -0.00605 -0.00053 -0.00219 -0.00165  0.00117
                  y   0.00965 -0.00023  0.00182  0.00057 -0.00440 -0.00248
                  z  -0.00823  0.00320 -0.00047  0.00161 -0.00008 -0.00199
  9   h           x  -0.07190  0.46870 -0.29062  0.27510 -0.35067  0.11223
                  y   0.05963 -0.32528  0.24941 -0.06411  0.35067 -0.27022
                  z  -0.02875  0.05599 -0.02872  0.05393 -0.01810 -0.02678
 10   h           x  -0.07372 -0.02062  0.04108  0.15387  0.01513  0.13390
                  y   0.48487 -0.43937  0.21980  0.37031  0.45996 -0.25176
                  z   0.04277 -0.04567  0.03883  0.05818  0.04615  0.00154
 11   h           x  -0.02763 -0.16865  0.51773  0.56035 -0.02839  0.42758
                  y   0.01920 -0.06603  0.20383  0.22555  0.13075  0.16347
                  z  -0.00337 -0.03770  0.10806  0.12496  0.00793  0.09048
 12   h           x  -0.36377 -0.29638  0.22477  0.37705 -0.30821 -0.03831
                  y   0.46999  0.26112 -0.18440 -0.16763  0.31566  0.24719
                  z  -0.02728 -0.02666  0.02381  0.05099 -0.02294  0.02120
 13   h           x   0.08383  0.09616 -0.02741  0.14988  0.00070 -0.08658
                  y   0.33788  0.46551 -0.35023  0.18400  0.43904  0.26712
                  z   0.04704  0.06366 -0.04908  0.04639  0.04811  0.01277
 14   o           x  -0.01947  0.00707  0.00029  0.00213  0.00239 -0.00096
                  y  -0.00477  0.00147  0.00047  0.00010  0.00120 -0.00079
                  z   0.01862 -0.00722  0.00027 -0.00308 -0.00231  0.00278

reduced mass(g/mol)     4.182    1.618    3.968    2.566    2.467    6.211


       mode              37       38       39       40       41       42

     frequency        1645.43  3151.64  3160.64  3183.84  3192.53  3212.56

     symmetry            a        a        a        a        a        a   

        IR               YES      YES      YES      YES      YES      YES
|dDIP/dQ|   (a.u.)     0.0080   0.0014   0.0045   0.0055   0.0036   0.0013
intensity (km/mol)     114.90     3.35    35.44    53.29    23.66     3.23
intensity (  %   )      44.97     1.31    13.87    20.86     9.26     1.26
 
       RAMAN             YES      YES      YES      YES      YES      YES
 
  1   c           x   0.08589 -0.00008 -0.00057 -0.00035 -0.00075 -0.00302
                  y  -0.17822  0.00021  0.00034 -0.00199 -0.00313  0.00068
                  z  -0.00511  0.00002 -0.00008 -0.00030 -0.00048 -0.00037
  2   c           x  -0.18040  0.00371 -0.00596 -0.00562  0.00250  0.05199
                  y   0.25127  0.00395 -0.00503 -0.00460  0.00277  0.06820
                  z  -0.00799  0.00086 -0.00129 -0.00120  0.00060  0.01339
  3   c           x   0.03866 -0.03955  0.06513  0.02979 -0.01563  0.01415
                  y  -0.29650  0.00557 -0.00956 -0.00155  0.00072 -0.00543
                  z  -0.02232 -0.00607  0.00995  0.00484 -0.00256  0.00190
  4   c           x  -0.07327  0.01455 -0.00672  0.02428 -0.01587  0.00064
                  y   0.12978 -0.03620  0.00840 -0.06157  0.03501 -0.00416
                  z   0.00003 -0.00107 -0.00037 -0.00187  0.00070 -0.00035
  5   c           x   0.20591  0.03525  0.03039 -0.00937  0.02231 -0.00113
                  y  -0.24753  0.04501  0.03857 -0.00565  0.03016 -0.00149
                  z   0.01260  0.01069  0.00920 -0.00223  0.00696 -0.00036
  6   c           x  -0.06135 -0.01645 -0.01553  0.04614  0.06687  0.00056
                  y   0.29867  0.00165  0.00080 -0.00654 -0.01222 -0.00023
                  z   0.02011 -0.00274 -0.00268  0.00751  0.01062  0.00009
  7   o           x  -0.01250 -0.00003  0.00016 -0.00005 -0.00002  0.00039
                  y   0.00643  0.00040 -0.00008  0.00009  0.00041  0.00022
                  z  -0.00258  0.00006  0.00004 -0.00001  0.00005  0.00002
  8   s           x   0.00361 -0.00007  0.00003  0.00004 -0.00005 -0.00028
                  y   0.00679 -0.00009  0.00000  0.00004  0.00003  0.00001
                  z   0.00088 -0.00001 -0.00002  0.00000  0.00002  0.00012
  9   h           x   0.35718 -0.04584  0.06514  0.05699 -0.02740 -0.59296
                  y  -0.15588 -0.05799  0.08230  0.06936 -0.03631 -0.76876
                  z   0.05169 -0.01164  0.01654  0.01425 -0.00714 -0.15257
 10   h           x   0.11694  0.47262 -0.75578 -0.32281  0.16758 -0.15242
                  y   0.32722 -0.06632  0.10638  0.04181 -0.02099  0.02438
                  z   0.05118  0.07237 -0.11563 -0.04988  0.02597 -0.02266
 11   h           x  -0.04740 -0.18303  0.05099 -0.28409  0.16342 -0.01413
                  y   0.15581  0.44579 -0.11218  0.69396 -0.39267  0.03598
                  z   0.00476  0.01255 -0.00218  0.01969 -0.01062  0.00086
 12   h           x  -0.32351 -0.41897 -0.34977  0.07319 -0.24766  0.01248
                  y   0.17824 -0.53421 -0.44543  0.08479 -0.31704  0.01536
                  z  -0.04486 -0.12692 -0.10581  0.02135 -0.07523  0.00369
 13   h           x  -0.15285  0.20734  0.19120 -0.53425 -0.76279 -0.00891
                  y  -0.29254 -0.03189 -0.02874  0.08409  0.12395  0.00166
                  z  -0.06040  0.03350  0.03091 -0.08608 -0.12250 -0.00117
 14   o           x  -0.00318  0.00007 -0.00004 -0.00006  0.00004  0.00036
                  y  -0.00151  0.00003 -0.00003 -0.00004  0.00003  0.00012
                  z   0.00268 -0.00004  0.00002  0.00002 -0.00003 -0.00017

reduced mass(g/mol)     5.901    1.083    1.089    1.093    1.095    1.094
 

         **************************************************************
         *                                                            *
         *  zero point VIBRATIONAL energy  :      0.0971934  Hartree  *
         *    SCF-energy                   :   -779.8802854           *
         *    SCF + E(vib0)                :   -779.7830920           *
         *                                                            *
         **************************************************************




 time elapsed for vibrational analysis     0.12 sec


    ------------------------------------------------------------------------
         total  cpu-time : 12 hours 10 minutes and 39 seconds
         total wall-time :  1 hours 31 minutes and 57 seconds
    ------------------------------------------------------------------------

   ****  force : all done  ****


    2019-02-05 11:13:43.917 

aoforce ended normally 
