
 Primary working directories    : /state/partition2/vallet/537208.phlam-s-sakura
 Secondary working directories  : /state/partition2/vallet/537208.phlam-s-sakura
 Wavefunction directory         : /home/vallet/wfu/
 Main file repository           : /state/partition2/vallet/537208.phlam-s-sakura/

 SHA1      : 5e3d8ac6839c721e2824de82269b4736200146bd
 NAME      : 2015.1.37
 ARCHNAME  : linux/x86_64
 FC        : /opt/intel/composer_xe_2015.1.133/bin/intel64/ifort
 BLASLIB   : -Wl,-_start-group /opt/intel/mkl/lib/intel64/libmkl_intel_ilp64.a /opt/intel/mkl/lib/intel64/libmkl_intel_thread.a /opt/intel/mkl/lib/intel64/libmkl_core.a -Wl,-_end-group
 id        : lill

 Nodes      nprocs
 u-0-2.local    8

 Using customized tuning parameters: mindgm=1; mindgv=20; mindgc=4; mindgr=1; noblas=0; minvec=7
 default implementation of scratch files=sf  

  memory,1000,m;
  file, 1, cis-CH3OSO.CCSD-T-CBS.int, new;
  file, 2, cis-CH3OSO.CCSD-T-CBS.wfu, new;
 
 geometry={
 7
 Energy = -588.2488117883
 C     0.0550606    0.7832201    0.1319652
 H    -0.3496371    0.3987333    1.0676300
 H     1.1440043    0.8442734    0.1957889
 H    -0.3605053    1.7660003   -0.0780940
 O    -0.3328248   -0.0456631   -0.9665011
 S     0.0260022   -1.6340592   -0.8669394
 O    -0.1821000   -2.1125048    0.5161505
 }
 
 basis={
   default,aug-cc-pVTZ;
 }
 {cfit,basis_coul=mycoul,basis_exch=myexch}
 
 charge=0;
 spin=1;
 
 hf;
 uccsd(t);
 
 ehf(1) = ENERGR(1);
 ecor_ccsdt(1) = ENERGY(1)-ENERGR(1);
 ecor_mp2(1) = EMP2(1)-ENERGR(1);
 
 basis={
   default,aug-cc-pVQZ;
 }
 {cfit,basis_coul=mycoul,basis_exch=myexch}
 
 hf;
 uccsd(t);
 ehf(2) = ENERGR(1);
 ecor_ccsdt(2) = ENERGY(1)-ENERGR(1);
 ecor_mp2(2) = EMP2(1)-ENERGR(1);
 
 extrapolate, basis=avtz:avqz, eref=ehf, ecorr=ecor_ccsdt, method_r=km, method_c=LH4;
 extrapolate, basis=avtz:avqz, eref=ehf, ecorr=ecor_mp2, method_r=km, method_c=LH4;

 Variables initialized (889), CPU time= 0.01 sec
 Commands  initialized (702), CPU time= 0.01 sec, 572 directives.
 Default parameters read. Elapsed time= 0.32 sec

 Checking input...
 Passed
1


                                         ***  PROGRAM SYSTEM MOLPRO  ***
                                       Copyright, TTI GmbH Stuttgart, 2015
                                    Version 2015.1 linked Aug 10 2018 15:00:15


 **********************************************************************************************************************************
 LABEL *                                                                                 
  64 bit mpp version                                                                     DATE: 28-Jan-19          TIME: 16:46:54  
 **********************************************************************************************************************************

 SHA1:             5e3d8ac6839c721e2824de82269b4736200146bd
 **********************************************************************************************************************************

 Variable memory set to 1000000000 words,  buffer space   230000 words



 Permanent file  1  cis-ch3oso.ccsd-t-cbs.int        assigned.  Implementation=df  
 Permanent file  2  cis-ch3oso.ccsd-t-cbs.wfu        assigned.  Implementation=df  
 


 **********************************************************************************************************************************
 DATASETS  * FILE   NREC   LENGTH (MB)   RECORD NAMES
              1       1        0.03       500   
                                          VAR  

              2       1        0.03       500   
                                          VAR  

 PROGRAMS   *        TOTAL      FILE
 CPU TIMES  *         0.19      0.03
 REAL TIME  *         0.57 SEC
 DISK USED  *         0.26 MB      
 **********************************************************************************************************************************

Geometry recognized as XYZ

 SETTING BASIS          =    AUG-CC-PVTZ
 SETTING CHARGE         =     0.00000000D+00                                  
 SETTING SPIN           =         1.00000000                                  


 Recomputing integrals since basis changed


 Using spherical harmonics

 Library entry C      S aug-cc-pVTZ          selected for orbital group  1
 Library entry C      P aug-cc-pVTZ          selected for orbital group  1
 Library entry C      D aug-cc-pVTZ          selected for orbital group  1
 Library entry C      F aug-cc-pVTZ          selected for orbital group  1
 Library entry H      S aug-cc-pVTZ          selected for orbital group  2
 Library entry H      P aug-cc-pVTZ          selected for orbital group  2
 Library entry H      D aug-cc-pVTZ          selected for orbital group  2
 Library entry O      S aug-cc-pVTZ          selected for orbital group  3
 Library entry O      P aug-cc-pVTZ          selected for orbital group  3
 Library entry O      D aug-cc-pVTZ          selected for orbital group  3
 Library entry O      F aug-cc-pVTZ          selected for orbital group  3
 Library entry S      S aug-cc-pVTZ          selected for orbital group  4
 Library entry S      P aug-cc-pVTZ          selected for orbital group  4
 Library entry S      D aug-cc-pVTZ          selected for orbital group  4
 Library entry S      F aug-cc-pVTZ          selected for orbital group  4


 PROGRAM * SEWARD (Integral evaluation for generally contracted gaussian basis sets)     Author: Roland Lindh, 1990

 Geometry written to block  1 of record 700


 Point group  C1  



 ATOMIC COORDINATES

 NR  ATOM    CHARGE       X              Y              Z

   1  C       6.00    0.104049454    1.480071484    0.249378086
   2  H       1.00   -0.660718362    0.753496734    2.017528302
   3  H       1.00    2.161854812    1.595445500    0.369987399
   4  H       1.00   -0.681256283    3.337256903   -0.147576272
   5  O       8.00   -0.628947719   -0.086290753   -1.826422378
   6  S      16.00    0.049137037   -3.087924359   -1.638278033
   7  O       8.00   -0.344119127   -3.992055509    0.975383084

 Bond lengths in Bohr (Angstrom)

 1-2  2.058916188  1-3  2.064563068  1-4  2.055095020  1-5  2.701799971  5-6  3.083018251
     ( 1.089531526)     ( 1.092519726)     ( 1.087509451)     ( 1.429730973)     ( 1.631462999)

 6-7  2.793443749
     ( 1.478226772)

 Bond angles

  1-5-6  117.25084709   2-1-3  109.86335284   2-1-4  110.05049215   2-1-5  110.75916579

  3-1-4  109.97792361   3-1-5  110.34626971   4-1-5  105.77400819   5-6-7  109.95325264

 NUCLEAR CHARGE:                   41
 NUMBER OF PRIMITIVE AOS:         366
 NUMBER OF SYMMETRY AOS:          324
 NUMBER OF CONTRACTIONS:          257   ( 257A   )
 NUMBER OF CORE ORBITALS:           8   (   8A   )
 NUMBER OF VALENCE ORBITALS:       19   (  19A   )


 NUCLEAR REPULSION ENERGY  174.60411794


 Eigenvalues of metric

         1 0.535E-04 0.606E-04 0.783E-04 0.153E-03 0.307E-03 0.428E-03 0.537E-03 0.681E-03


 Contracted 2-electron integrals neglected if value below      1.0D-11
 AO integral compression algorithm  1   Integral accuracy      1.0D-11

     2485.387 MB (compressed) written to integral file ( 49.0%)

     Node minimum: 290.193 MB, node maximum: 347.341 MB


 NUMBER OF SORTED TWO-ELECTRON INTEGRALS:   68707520.     BUFFER LENGTH:  32768
 NUMBER OF SEGMENTS:   5  SEGMENT LENGTH:   15996384      RECORD LENGTH: 524288

 Memory used in sort:      16.55 MW

 SORT1 READ   633391679. AND WROTE    66709335. INTEGRALS IN    194 RECORDS. CPU TIME:    18.45 SEC, REAL TIME:    20.63 SEC
 SORT2 READ   535291244. AND WROTE   549577281. INTEGRALS IN   9304 RECORDS. CPU TIME:     2.61 SEC, REAL TIME:     6.62 SEC

 Node minimum:    68682656.  Node maximum:    68711665. integrals

 OPERATOR DM      FOR CENTER  0  COORDINATES:    0.000000    0.000000    0.000000


 **********************************************************************************************************************************
 DATASETS  * FILE   NREC   LENGTH (MB)   RECORD NAMES
              1      18       22.44       500      610      700      900      950      970     1000      129      960     1100   
                                          VAR    BASINP    GEOM    SYMINP    ZMAT    AOBASIS   BASIS     P2S    ABASIS      S 
                                         1400     1410     1200     1210     1080     1600     1650     1700   
                                           T        V       H0       H01     AOSYM     SMH    MOLCAS    OPER   

              2       5        2.34       500      610      700     1000      520   
                                          VAR    BASINP    GEOM     BASIS   MCVARS    

 PROGRAMS   *        TOTAL       INT      FILE
 CPU TIMES  *        28.18     27.98      0.03
 REAL TIME  *        40.98 SEC
 DISK USED  *         8.86 GB      
 GA USED    *         0.00 MB       (max)       0.00 MB       (current)
 **********************************************************************************************************************************


 PROGRAM * RHF-SCF (OPEN SHELL)       Authors: W. Meyer, H.-J. Werner


 NUMBER OF ELECTRONS:      21+   20-    SPACE SYMMETRY=1    SPIN SYMMETRY: Doublet 
 CONVERGENCE THRESHOLDS:    1.00E-05 (Density)    1.00E-07 (Energy)
 MAX. NUMBER OF ITERATIONS:       60
 INTERPOLATION TYPE:            DIIS
 INTERPOLATION STEPS:              2 (START)      1 (STEP)
 LEVEL SHIFTS:                 -0.60 (CLOSED) -0.30 (OPEN) 



 Orbital guess generated from atomic densities. Full valence occupancy:   27

 Molecular orbital dump at record        2100.2

 Initial alpha occupancy:  21
 Initial beta  occupancy:  20
 Wave function symmetry:    1

 ITERATION    DDIFF          GRAD             ENERGY        2-EL.EN.            DIPOLE MOMENTS         DIIS   ORB.
    1      0.000D+00      0.000D+00      -586.80279539    785.832620    0.50418    0.92293   -0.95442    0    start
    2      0.000D+00      0.435D-02      -586.88488620    788.330649    0.30141    0.76186   -0.23220    1    diag,B
    3      0.415D-02      0.160D-02      -586.89474720    788.710689    0.32597    0.78864   -0.34877    2    diag,B
    4      0.127D-02      0.516D-03      -586.89782852    788.782602    0.32156    0.76300   -0.30264    3    diag,B
    5      0.731D-03      0.212D-03      -586.89863065    788.778859    0.32009    0.75972   -0.29973    4    diag,B
    6      0.357D-03      0.781D-04      -586.89878029    788.777392    0.32044    0.75878   -0.29739    5    diag,B
    7      0.132D-03      0.402D-04      -586.89882672    788.772671    0.31961    0.76036   -0.29680    6    fixocc
    8      0.761D-04      0.217D-04      -586.89884504    788.778156    0.31875    0.76084   -0.29488    7    diag,B
    9      0.463D-04      0.139D-04      -586.89885778    788.782273    0.31746    0.76055   -0.29186    8    diag,B
   10      0.443D-04      0.866D-05      -586.89886443    788.785241    0.31649    0.75964   -0.28906    9    orth
   11      0.318D-04      0.507D-05      -586.89886721    788.787036    0.31587    0.75848   -0.28670    9    diag,B
   12      0.246D-04      0.231D-05      -586.89886768    788.787704    0.31568    0.75775   -0.28564    9    diag,B
   13      0.124D-04      0.941D-06      -586.89886773    788.787822    0.31564    0.75746   -0.28535    9    diag,B
   14      0.448D-05      0.373D-06      -586.89886773    788.787839    0.31563    0.75742   -0.28532    0    orth

 Final alpha occupancy:  21
 Final beta  occupancy:  20

 !RHF STATE 1.1 Energy               -586.898867733992
 Nuclear energy                       174.60411794
 One-electron energy                -1155.89690540
 Two-electron energy                  394.39391973
 Virial quotient                       -1.00078091
 !RHF STATE 1.1 Dipole moment           0.31563476     0.75742261    -0.28532100
 Dipole moment /Debye                   0.80221100     1.92505016    -0.72516614

 Orbital energies:

         1.1          2.1          3.1          4.1          5.1          6.1          7.1          8.1          9.1         10.1
    -92.110449   -20.617769   -20.581530   -11.299304    -9.095399    -6.776187    -6.774672    -6.774374    -1.444751    -1.363368

        11.1         12.1         13.1         14.1         15.1         16.1         17.1         18.1         19.1         20.1
     -0.990520    -0.853517    -0.694896    -0.677036    -0.665812    -0.578513    -0.564116    -0.540795    -0.493320    -0.472712

        21.1         22.1         23.1
     -0.370992     0.028766     0.044029

 HOMO     21.1    -0.370992 =     -10.0952eV
 LUMO     22.1     0.028766 =       0.7828eV
 LUMO-HOMO         0.399758 =      10.8780eV


 **********************************************************************************************************************************
 DATASETS  * FILE   NREC   LENGTH (MB)   RECORD NAMES
              1      18       22.44       500      610      700      900      950      970     1000      129      960     1100   
                                          VAR    BASINP    GEOM    SYMINP    ZMAT    AOBASIS   BASIS     P2S    ABASIS      S 
                                         1400     1410     1200     1210     1080     1600     1650     1700   
                                           T        V       H0       H01     AOSYM     SMH    MOLCAS    OPER   

              2       6        6.72       500      610      700     1000      520     2100   
                                          VAR    BASINP    GEOM     BASIS   MCVARS     RHF  

 PROGRAMS   *        TOTAL        HF       INT      FILE
 CPU TIMES  *        42.59     14.41     27.98      0.03
 REAL TIME  *        56.77 SEC
 DISK USED  *         9.17 GB      
 SF USED    *         0.27 MB      
 GA USED    *         0.00 MB       (max)       0.00 MB       (current)
 **********************************************************************************************************************************


 PROGRAM * CCSD (Unrestricted open-shell coupled cluster)     Authors: C. Hampel, H.-J. Werner, 1991, M. Deegan, P.J. Knowles, 1992


 Convergence thresholds:  THRVAR = 1.00D-08  THRDEN = 1.00D-06

 CCSD(T)     terms to be evaluated (factor= 1.000)


 Number of core orbitals:           8 (   8 )
 Number of closed-shell orbitals:  12 (  12 )
 Number of active  orbitals:        1 (   1 )
 Number of external orbitals:     236 ( 236 )

 Memory could be reduced to 304.06 Mwords without degradation in triples

 Number of N-1 electron functions:              25
 Number of N-2 electron functions:             300
 Number of singly external CSFs:              5925
 Number of doubly external CSFs:          12789468
 Total number of CSFs:                    12795393

 Molecular orbitals read from record     2100.2  Type=RHF/CANONICAL (state 1.1)

 Integral transformation finished. Total CPU:  37.78 sec, npass=  1  Memory used: 130.67 MW

 Starting RMP2 calculation

 ITER.      SQ.NORM     CORR.ENERGY   TOTAL ENERGY   ENERGY CHANGE        DEN1      VAR(S)    VAR(P)  DIIS     TIME
   1      1.24579912    -0.84342213  -587.74228986    -0.84342213    -0.00284254  0.31D-04  0.11D-02  1  1    43.04
   2      1.24859224    -0.84648364  -587.74535138    -0.00306152    -0.00000608  0.21D-06  0.31D-05  2  2    49.24
   3      1.24869349    -0.84654089  -587.74540862    -0.00005725    -0.00000003  0.22D-08  0.13D-07  3  3    55.19
   4      1.24869476    -0.84654066  -587.74540840     0.00000023    -0.00000000  0.33D-10  0.47D-10  4  4    60.39

 Norm of t1 vector:      0.06138886      S-energy:    -0.00492197      T1 diagnostic:  0.00024335
 Norm of t2 vector:      0.49490016      P-energy:    -0.84161869
                                         Alpha-Beta:  -0.62869504
                                         Alpha-Alpha: -0.10695413
                                         Beta-Beta:   -0.10596952

 Spin contamination <S**2-Sz**2-Sz>     0.00194173
  Reference energy                   -586.898867733994
  RHF-RMP2 correlation energy          -0.846540664110
 !RHF-RMP2 energy                    -587.745408398104

 Starting UCCSD calculation

 ITER.      SQ.NORM     CORR.ENERGY   TOTAL ENERGY   ENERGY CHANGE        DEN1      VAR(S)    VAR(P)  DIIS     TIME
   1      1.24019892    -0.82947156  -587.72833930    -0.82947156    -0.02614158  0.60D-02  0.51D-02  1  1   134.35
   2      1.26266448    -0.85276503  -587.75163277    -0.02329347    -0.00260747  0.23D-03  0.90D-03  2  2   204.29
   3      1.27205717    -0.85666792  -587.75553565    -0.00390288    -0.00033586  0.23D-03  0.47D-04  3  3   271.57
   4      1.27644840    -0.85818329  -587.75705102    -0.00151537    -0.00006753  0.37D-04  0.13D-04  4  4   343.56
   5      1.27875705    -0.85852733  -587.75739506    -0.00034404    -0.00001545  0.13D-04  0.18D-05  5  5   415.54
   6      1.27999332    -0.85865705  -587.75752478    -0.00012972    -0.00000256  0.16D-05  0.52D-06  6  6   502.84
   7      1.28038839    -0.85868894  -587.75755668    -0.00003189    -0.00000052  0.37D-06  0.96D-07  6  2   575.57
   8      1.28049913    -0.85869659  -587.75756432    -0.00000765    -0.00000012  0.94D-07  0.21D-07  6  1   673.49
   9      1.28053318    -0.85869961  -587.75756735    -0.00000302    -0.00000004  0.30D-07  0.59D-08  6  3   782.93
  10      1.28053324    -0.85869821  -587.75756594     0.00000141    -0.00000001  0.75D-08  0.15D-08  6  5   873.69
  11      1.28054331    -0.85869757  -587.75756530     0.00000064    -0.00000000  0.16D-08  0.38D-09  6  4   981.51

 Norm of t1 vector:      0.14207879      S-energy:    -0.00496554      T1 diagnostic:  0.01807250
                                                                       D1 diagnostic:  0.05260674
 Norm of t2 vector:      0.51025182      P-energy:    -0.85373203
                                         Alpha-Beta:  -0.66526468
                                         Alpha-Alpha: -0.09544057
                                         Beta-Beta:   -0.09302677

 Spin contamination <S**2-Sz**2-Sz>     0.00218443

 Memory could be reduced to 323.95 Mwords without degradation in triples
 

 RESULTS
 =======

  Reference energy                   -586.898867733994
  UCCSD singles energy                 -0.004965544409
  UCCSD pair energy                    -0.853732026242
  UCCSD correlation energy             -0.858697570651
  Triples (T) contribution             -0.040209356478
  Total correlation energy             -0.898906927129
 
  RHF-UCCSD energy                   -587.757565304645
  RHF-UCCSD[T] energy                -587.799908302900
  RHF-UCCSD-T energy                 -587.796868741600
 !RHF-UCCSD(T) energy                -587.797774661123

 Program statistics:

 Available memory in ccsd:               999998418
 Min. memory needed in ccsd:              36399381
 Max. memory used in ccsd:                52397606
 Max. memory used in cckext:              41337133 (11 integral passes)
 Max. memory used in cckint:             130666184 ( 1 integral passes)



 **********************************************************************************************************************************
 DATASETS  * FILE   NREC   LENGTH (MB)   RECORD NAMES
              1      18       22.44       500      610      700      900      950      970     1000      129      960     1100   
                                          VAR    BASINP    GEOM    SYMINP    ZMAT    AOBASIS   BASIS     P2S    ABASIS      S 
                                         1400     1410     1200     1210     1080     1600     1650     1700   
                                           T        V       H0       H01     AOSYM     SMH    MOLCAS    OPER   

              2       6        6.72       500      610      700     1000      520     2100   
                                          VAR    BASINP    GEOM     BASIS   MCVARS     RHF  

 PROGRAMS   *        TOTAL  UCCSD(T)        HF       INT      FILE
 CPU TIMES  *      1958.84   1916.25     14.41     27.98      0.03
 REAL TIME  *      2089.92 SEC
 DISK USED  *        22.04 GB      
 SF USED    *         5.59 GB      
 GA USED    *         0.00 MB       (max)       0.00 MB       (current)
 **********************************************************************************************************************************
 SETTING EHF(1)         =      -586.89886773  AU                              
 SETTING ECOR_CCSDT(1)  =        -0.89890693  AU                              
 SETTING ECOR_MP2(1)    =        -0.84654066  AU                              
 SETTING BASIS          =    AUG-CC-PVQZ


 Recomputing integrals since basis changed


 Using spherical harmonics

 Library entry C      S aug-cc-pVQZ          selected for orbital group  1
 Library entry C      P aug-cc-pVQZ          selected for orbital group  1
 Library entry C      D aug-cc-pVQZ          selected for orbital group  1
 Library entry C      F aug-cc-pVQZ          selected for orbital group  1
 Library entry C      G aug-cc-pVQZ          selected for orbital group  1
 Library entry H      S aug-cc-pVQZ          selected for orbital group  2
 Library entry H      P aug-cc-pVQZ          selected for orbital group  2
 Library entry H      D aug-cc-pVQZ          selected for orbital group  2
 Library entry H      F aug-cc-pVQZ          selected for orbital group  2
 Library entry O      S aug-cc-pVQZ          selected for orbital group  3
 Library entry O      P aug-cc-pVQZ          selected for orbital group  3
 Library entry O      D aug-cc-pVQZ          selected for orbital group  3
 Library entry O      F aug-cc-pVQZ          selected for orbital group  3
 Library entry O      G aug-cc-pVQZ          selected for orbital group  3
 Library entry S      S aug-cc-pVQZ          selected for orbital group  4
 Library entry S      P aug-cc-pVQZ          selected for orbital group  4
 Library entry S      D aug-cc-pVQZ          selected for orbital group  4
 Library entry S      F aug-cc-pVQZ          selected for orbital group  4
 Library entry S      G aug-cc-pVQZ          selected for orbital group  4


 PROGRAM * SEWARD (Integral evaluation for generally contracted gaussian basis sets)     Author: Roland Lindh, 1990

 Geometry written to block  1 of record 700


 Point group  C1  



 ATOMIC COORDINATES

 NR  ATOM    CHARGE       X              Y              Z

   1  C       6.00    0.104049454    1.480071484    0.249378086
   2  H       1.00   -0.660718362    0.753496734    2.017528302
   3  H       1.00    2.161854812    1.595445500    0.369987399
   4  H       1.00   -0.681256283    3.337256903   -0.147576272
   5  O       8.00   -0.628947719   -0.086290753   -1.826422378
   6  S      16.00    0.049137037   -3.087924359   -1.638278033
   7  O       8.00   -0.344119127   -3.992055509    0.975383084

 Bond lengths in Bohr (Angstrom)

 1-2  2.058916188  1-3  2.064563068  1-4  2.055095020  1-5  2.701799971  5-6  3.083018251
     ( 1.089531526)     ( 1.092519726)     ( 1.087509451)     ( 1.429730973)     ( 1.631462999)

 6-7  2.793443749
     ( 1.478226772)

 Bond angles

  1-5-6  117.25084709   2-1-3  109.86335284   2-1-4  110.05049215   2-1-5  110.75916579

  3-1-4  109.97792361   3-1-5  110.34626971   4-1-5  105.77400819   5-6-7  109.95325264

 NUCLEAR CHARGE:                   41
 NUMBER OF PRIMITIVE AOS:         662
 NUMBER OF SYMMETRY AOS:          535
 NUMBER OF CONTRACTIONS:          462   ( 462A   )
 NUMBER OF CORE ORBITALS:           8   (   8A   )
 NUMBER OF VALENCE ORBITALS:       19   (  19A   )


 NUCLEAR REPULSION ENERGY  174.60411794


 Eigenvalues of metric

         1 0.136E-04 0.217E-04 0.247E-04 0.360E-04 0.565E-04 0.661E-04 0.699E-04 0.804E-04


 Contracted 2-electron integrals neglected if value below      1.0D-12
 AO integral compression algorithm  1   Integral accuracy      1.0D-12

     25549.603 MB (compressed) written to integral file ( 50.0%)

     Node minimum: 2648.441 MB, node maximum: 3553.362 MB


 NUMBER OF SORTED TWO-ELECTRON INTEGRALS:  714974120.     BUFFER LENGTH:  32768
 NUMBER OF SEGMENTS:  23  SEGMENT LENGTH:   31996696      RECORD LENGTH: 524288

 Memory used in sort:      32.55 MW

 SORT1 READ  6392871922. AND WROTE   682054729. INTEGRALS IN   1963 RECORDS. CPU TIME:   349.37 SEC, REAL TIME:   384.65 SEC
 SORT2 READ  5455257448. AND WROTE  5719525581. INTEGRALS IN  93208 RECORDS. CPU TIME:    31.65 SEC, REAL TIME:   121.31 SEC

 Node minimum:   714893906.  Node maximum:   714987490. integrals

 OPERATOR DM      FOR CENTER  0  COORDINATES:    0.000000    0.000000    0.000000


 **********************************************************************************************************************************
 DATASETS  * FILE   NREC   LENGTH (MB)   RECORD NAMES
              1      18       27.83       500      610      700      900      950      970     1001      129      960     1100   
                                          VAR    BASINP    GEOM    SYMINP    ZMAT    AOBASIS   BASIS     P2S    ABASIS      S 
                                         1400     1410     1200     1210     1080     1600     1650     1700   
                                           T        V       H0       H01     AOSYM     SMH    MOLCAS    OPER   

              2       7        7.61       500      610      700     1000      520     2100     1001   
                                          VAR    BASINP    GEOM     BASIS   MCVARS     RHF     BASIS   

 PROGRAMS   *        TOTAL       INT  UCCSD(T)        HF       INT      FILE
 CPU TIMES  *      2413.90    454.98   1916.25     14.41     27.98      0.03
 REAL TIME  *      2687.79 SEC
 DISK USED  *       104.19 GB      
 SF USED    *         5.59 GB      
 GA USED    *         0.00 MB       (max)       0.00 MB       (current)
 **********************************************************************************************************************************


 PROGRAM * RHF-SCF (OPEN SHELL)       Authors: W. Meyer, H.-J. Werner


 NUMBER OF ELECTRONS:      21+   20-    SPACE SYMMETRY=1    SPIN SYMMETRY: Doublet 
 CONVERGENCE THRESHOLDS:    1.00E-05 (Density)    1.00E-07 (Energy)
 MAX. NUMBER OF ITERATIONS:       60
 INTERPOLATION TYPE:            DIIS
 INTERPOLATION STEPS:              2 (START)      1 (STEP)
 LEVEL SHIFTS:                 -0.60 (CLOSED) -0.30 (OPEN) 



 Molecular orbitals read from record     2100.2  Type=RHF/CANONICAL (state 1.1)
 
 Present basis size:     462
 Previous basis size:    257
 Previous occupation:     21
 Previous closed-shells:  20
 Previous core-orbitals:   8
 Present occupation:      21
 Present closed-shells:   20
 Present core-orbitals:    8
 Wavefunction symmetry:    1   Doublet 

 Orbital overlap <old|new>:  < 1.1| 1.1> = 1.000000   < 2.1| 2.1> = 0.999999   < 3.1| 3.1> = 0.999999   < 4.1| 4.1> = 0.999999
                             < 5.1| 5.1> = 1.000000   < 6.1| 6.1> = 0.999999   < 7.1| 7.1> = 0.999998   < 8.1| 8.1> = 0.999998
                             < 9.1| 9.1> = 0.999995   <10.1|10.1> = 0.999992   <11.1|11.1> = 0.999994   <12.1|12.1> = 0.999995
                             <13.1|13.1> = 0.999984   <14.1|14.1> = 0.999983   <15.1|15.1> = 0.999985   <16.1|16.1> = 0.999981
                             <17.1|17.1> = 0.999980   <18.1|18.1> = 0.999979   <19.1|19.1> = 0.999974   <20.1|20.1> = 0.999972
                             <21.1|21.1> = 0.999972

 Molecular orbital dump at record        2101.2

 ITERATION    DDIFF          GRAD             ENERGY        2-EL.EN.            DIPOLE MOMENTS         DIIS   ORB.
    1      0.000D+00      0.000D+00      -586.91472446    788.811732    0.31571    0.75714   -0.28565    0    start
    2      0.000D+00      0.125D-02      -586.91883291    788.952291    0.31500    0.75844   -0.28289    1    diag,B
    3      0.555D-02      0.170D-03      -586.91898022    788.938208    0.31467    0.75958   -0.28370    2    diag,B
    4      0.942D-03      0.261D-04      -586.91899082    788.934324    0.31451    0.76004   -0.28407    3    diag,B
    5      0.285D-03      0.911D-05      -586.91899347    788.929563    0.31448    0.76050   -0.28472    4    diag,B
    6      0.110D-03      0.408D-05      -586.91899434    788.928125    0.31462    0.76064   -0.28514    5    diag,B
    7      0.231D-04      0.237D-05      -586.91899481    788.926784    0.31477    0.76085   -0.28576    6    diag,B
    8      0.541D-05      0.164D-05      -586.91899510    788.926259    0.31491    0.76097   -0.28621    7    orth
    9      0.632D-05      0.115D-05      -586.91899533    788.925958    0.31506    0.76116   -0.28679    8    diag,B
   10      0.458D-05      0.731D-06      -586.91899542    788.925636    0.31516    0.76130   -0.28715    9    diag,B
   11      0.294D-05      0.378D-06      -586.91899542    788.925601    0.31518    0.76136   -0.28726    0    orth

 Final alpha occupancy:  21
 Final beta  occupancy:  20

 !RHF STATE 1.1 Energy               -586.918995424690
 Nuclear energy                       174.60411794
 One-electron energy                -1155.98591373
 Two-electron energy                  394.46280037
 Virial quotient                       -1.00064631
 !RHF STATE 1.1 Dipole moment           0.31518350     0.76136320    -0.28725946
 Dipole moment /Debye                   0.80106409     1.93506549    -0.73009289

 Orbital energies:

         1.1          2.1          3.1          4.1          5.1          6.1          7.1          8.1          9.1         10.1
    -92.106929   -20.614938   -20.578209   -11.298490    -9.092202    -6.773339    -6.772029    -6.771539    -1.443600    -1.362125

        11.1         12.1         13.1         14.1         15.1         16.1         17.1         18.1         19.1         20.1
     -0.990194    -0.852879    -0.694862    -0.677095    -0.665856    -0.578407    -0.563974    -0.541147    -0.493731    -0.473138

        21.1         22.1         23.1
     -0.370930     0.025413     0.039577

 HOMO     21.1    -0.370930 =     -10.0935eV
 LUMO     22.1     0.025413 =       0.6915eV
 LUMO-HOMO         0.396343 =      10.7850eV


 **********************************************************************************************************************************
 DATASETS  * FILE   NREC   LENGTH (MB)   RECORD NAMES
              1      18       27.83       500      610      700      900      950      970     1001      129      960     1100   
                                          VAR    BASINP    GEOM    SYMINP    ZMAT    AOBASIS   BASIS     P2S    ABASIS      S 
                                         1400     1410     1200     1210     1080     1600     1650     1700   
                                           T        V       H0       H01     AOSYM     SMH    MOLCAS    OPER   

              2       8       16.09       500      610      700     1000      520     2100     1001     2101   
                                          VAR    BASINP    GEOM     BASIS   MCVARS     RHF     BASIS     RHF  

 PROGRAMS   *        TOTAL        HF       INT  UCCSD(T)        HF       INT      FILE
 CPU TIMES  *      2613.94    200.00    454.98   1916.25     14.41     27.98      0.03
 REAL TIME  *      2916.10 SEC
 DISK USED  *       104.19 GB      
 SF USED    *         5.59 GB      
 GA USED    *         0.00 MB       (max)       0.00 MB       (current)
 **********************************************************************************************************************************


 PROGRAM * CCSD (Unrestricted open-shell coupled cluster)     Authors: C. Hampel, H.-J. Werner, 1991, M. Deegan, P.J. Knowles, 1992


 Convergence thresholds:  THRVAR = 1.00D-08  THRDEN = 1.00D-06

 CCSD(T)     terms to be evaluated (factor= 1.000)


 Number of core orbitals:           8 (   8 )
 Number of closed-shell orbitals:  12 (  12 )
 Number of active  orbitals:        1 (   1 )
 Number of external orbitals:     441 ( 441 )

 For full I/O caching in triples, increase memory by 829.44 Mwords to 1829.72 Mwords.

 Number of N-1 electron functions:              25
 Number of N-2 electron functions:             300
 Number of singly external CSFs:             11050
 Number of doubly external CSFs:          44511168
 Total number of CSFs:                    44522218

 Molecular orbitals read from record     2101.2  Type=RHF/CANONICAL (state 1.1)

 Integral transformation finished. Total CPU: 398.73 sec, npass=  1  Memory used: 728.59 MW

 Starting RMP2 calculation

 ITER.      SQ.NORM     CORR.ENERGY   TOTAL ENERGY   ENERGY CHANGE        DEN1      VAR(S)    VAR(P)  DIIS     TIME
   1      1.25045729    -0.89782109  -587.81681651    -0.89782109    -0.00284840  0.31D-04  0.11D-02  1  1   430.14
   2      1.25324633    -0.90088584  -587.81988126    -0.00306475    -0.00000616  0.20D-06  0.32D-05  2  2   449.85
   3      1.25334956    -0.90094498  -587.81994041    -0.00005915    -0.00000003  0.22D-08  0.14D-07  3  3   467.56
   4      1.25335089    -0.90094475  -587.81994017     0.00000023    -0.00000000  0.29D-10  0.50D-10  4  4   486.38

 Norm of t1 vector:      0.06148609      S-energy:    -0.00491661      T1 diagnostic:  0.00023921
 Norm of t2 vector:      0.49957016      P-energy:    -0.89602814
                                         Alpha-Beta:  -0.67623913
                                         Alpha-Alpha: -0.11072817
                                         Beta-Beta:   -0.10906084

 Spin contamination <S**2-Sz**2-Sz>     0.00192911
  Reference energy                   -586.918995424689
  RHF-RMP2 correlation energy          -0.900944750038
 !RHF-RMP2 energy                    -587.819940174727

 Starting UCCSD calculation

 ITER.      SQ.NORM     CORR.ENERGY   TOTAL ENERGY   ENERGY CHANGE        DEN1      VAR(S)    VAR(P)  DIIS     TIME
   1      1.24141335    -0.87590248  -587.79489790    -0.87590248    -0.02628247  0.60D-02  0.50D-02  1  1   938.95
   2      1.26299654    -0.89883161  -587.81782703    -0.02292913    -0.00266886  0.24D-03  0.88D-03  2  2  1459.38
   3      1.27257069    -0.90293796  -587.82193338    -0.00410635    -0.00033573  0.22D-03  0.47D-04  3  3  2049.00
   4      1.27675013    -0.90443644  -587.82343187    -0.00149849    -0.00007188  0.40D-04  0.14D-04  4  4  2554.52
   5      1.27918935    -0.90481511  -587.82381054    -0.00037867    -0.00001617  0.14D-04  0.19D-05  5  5  3072.39
   6      1.28044285    -0.90495283  -587.82394825    -0.00013771    -0.00000275  0.17D-05  0.53D-06  6  6  3517.53
   7      1.28086721    -0.90498567  -587.82398110    -0.00003284    -0.00000053  0.37D-06  0.96D-07  6  2  4037.31
   8      1.28097643    -0.90499230  -587.82398772    -0.00000663    -0.00000013  0.96D-07  0.22D-07  6  1  4458.84
   9      1.28101115    -0.90499551  -587.82399094    -0.00000321    -0.00000004  0.29D-07  0.58D-08  6  3  4857.47
  10      1.28101125    -0.90499412  -587.82398955     0.00000139    -0.00000001  0.77D-08  0.15D-08  6  5  5221.91
  11      1.28102121    -0.90499369  -587.82398912     0.00000043    -0.00000000  0.16D-08  0.40D-09  6  4  5607.55

 Norm of t1 vector:      0.14067001      S-energy:    -0.00498141      T1 diagnostic:  0.01782602
                                                                       D1 diagnostic:  0.05138444
 Norm of t2 vector:      0.51110973      P-energy:    -0.90001228
                                         Alpha-Beta:  -0.70557193
                                         Alpha-Alpha: -0.09876057
                                         Beta-Beta:   -0.09567979

 Spin contamination <S**2-Sz**2-Sz>     0.00227333

 For full I/O caching in triples, increase memory by 882.32 Mwords to 1882.60 Mwords.
 

 RESULTS
 =======

  Reference energy                   -586.918995424689
  UCCSD singles energy                 -0.004981410103
  UCCSD pair energy                    -0.900012281028
  UCCSD correlation energy             -0.904993691131
  Triples (T) contribution             -0.043441048601
  Total correlation energy             -0.948434739732
 
  RHF-UCCSD energy                   -587.823989115820
  RHF-UCCSD[T] energy                -587.869546883277
  RHF-UCCSD-T energy                 -587.866578362690
 !RHF-UCCSD(T) energy                -587.867430164421

 Program statistics:

 Available memory in ccsd:               999998418
 Min. memory needed in ccsd:             125687023
 Max. memory used in ccsd:               181526937
 Max. memory used in cckext:             132948898 (11 integral passes)
 Max. memory used in cckint:             728592226 ( 1 integral passes)



 **********************************************************************************************************************************
 DATASETS  * FILE   NREC   LENGTH (MB)   RECORD NAMES
              1      18       27.83       500      610      700      900      950      970     1001      129      960     1100   
                                          VAR    BASINP    GEOM    SYMINP    ZMAT    AOBASIS   BASIS     P2S    ABASIS      S 
                                         1400     1410     1200     1210     1080     1600     1650     1700   
                                           T        V       H0       H01     AOSYM     SMH    MOLCAS    OPER   

              2       8       16.09       500      610      700     1000      520     2100     1001     2101   
                                          VAR    BASINP    GEOM     BASIS   MCVARS     RHF     BASIS     RHF  

 PROGRAMS   *        TOTAL  UCCSD(T)        HF       INT  UCCSD(T)        HF       INT      FILE
 CPU TIMES  *     15749.71  13135.69    200.00    454.98   1916.25     14.41     27.98      0.03
 REAL TIME  *     16857.33 SEC
 DISK USED  *       136.38 GB      
 SF USED    *        31.79 GB      
 GA USED    *         0.00 MB       (max)       0.00 MB       (current)
 **********************************************************************************************************************************
 SETTING EHF(2)         =      -586.91899542  AU                              
 SETTING ECOR_CCSDT(2)  =        -0.94843474  AU                              
 SETTING ECOR_MP2(2)    =        -0.90094475  AU                              

 
 Extrapolating energy using  ECORR and basissets AVTZ AVQZ

 *** Long output written to logfile /home/vallet/John-methylsulfonyl/Units/CH3SO2/geom-cis-CH3OSO/optg-freq-pbe0/CCSD-T/cis-CH3OSO.CCSD-T-CBS.log ***


 Extrapolating reference energy using E(n)=ECBS+A*(l+1)*exp(-9*sqrt(l))

 E(CBS)=  -586.92153650  A= 0.333694D+05

 Extrapolating correlation energy using function (n+ 0.5)^{-X} with X= 4.0
 
 L=3  E=    -0.89890693  EFIT=    -0.89890693
 L=4  E=    -0.94843474  EFIT=    -0.94843474

 E(CBS)=    -0.97702038  Coefficients:   11.7219

 BASIS           EREF            ECORR           ETOT
 AVTZ       -586.89886773     -0.89890693   -587.79777466
 AVQZ       -586.91899542     -0.94843474   -587.86743016
 CBS        -586.92153650     -0.97702038   -587.89855689
 


 **********************************************************************************************************************************
 DATASETS  * FILE   NREC   LENGTH (MB)   RECORD NAMES
              1      18       27.83       500      610      700      900      950      970     1001      129      960     1100   
                                          VAR    BASINP    GEOM    SYMINP    ZMAT    AOBASIS   BASIS     P2S    ABASIS      S 
                                         1400     1410     1200     1210     1080     1600     1650     1700   
                                           T        V       H0       H01     AOSYM     SMH    MOLCAS    OPER   

              2       8       16.09       500      610      700     1000      520     2100     1001     2101   
                                          VAR    BASINP    GEOM     BASIS   MCVARS     RHF     BASIS     RHF  

 PROGRAMS   *        TOTAL  EXTRAPOL  UCCSD(T)        HF       INT  UCCSD(T)        HF       INT      FILE
 CPU TIMES  *     15750.40      0.00  13135.69    200.00    454.98   1916.25     14.41     27.98      0.03
 REAL TIME  *     16864.67 SEC
 DISK USED  *       136.38 GB      
 SF USED    *        31.79 GB      
 GA USED    *         0.00 MB       (max)       0.00 MB       (current)
 **********************************************************************************************************************************

 
 Extrapolating energy using  ECORR and basissets AVTZ AVQZ

 Extrapolating reference energy using E(n)=ECBS+A*(l+1)*exp(-9*sqrt(l))

 E(CBS)=  -586.92153650  A= 0.333694D+05

 Extrapolating correlation energy using function (n+ 0.5)^{-X} with X= 4.0
 
 L=3  E=    -0.84654066  EFIT=    -0.84654066
 L=4  E=    -0.90094475  EFIT=    -0.90094475

 E(CBS)=    -0.93234480  Coefficients:   12.8760

 BASIS           EREF            ECORR           ETOT
 AVTZ       -586.89886773     -0.84654066   -587.74540840
 AVQZ       -586.91899542     -0.90094475   -587.81994017
 CBS        -586.92153650     -0.93234480   -587.85388130
 


 **********************************************************************************************************************************
 DATASETS  * FILE   NREC   LENGTH (MB)   RECORD NAMES
              1      18       27.83       500      610      700      900      950      970     1001      129      960     1100   
                                          VAR    BASINP    GEOM    SYMINP    ZMAT    AOBASIS   BASIS     P2S    ABASIS      S 
                                         1400     1410     1200     1210     1080     1600     1650     1700   
                                           T        V       H0       H01     AOSYM     SMH    MOLCAS    OPER   

              2       8       16.09       500      610      700     1000      520     2100     1001     2101   
                                          VAR    BASINP    GEOM     BASIS   MCVARS     RHF     BASIS     RHF  

 PROGRAMS   *        TOTAL  EXTRAPOLEXTRAPOLAT  UCCSD(T)        HF       INT  UCCSD(T)        HF       INT      FILE
 CPU TIMES  *     15750.41      0.00      0.00  13135.69    200.00    454.98   1916.25     14.41     27.98      0.03
 REAL TIME  *     16864.68 SEC
 DISK USED  *       136.38 GB      
 SF USED    *        31.79 GB      
 GA USED    *         0.00 MB       (max)       0.00 MB       (current)
 **********************************************************************************************************************************

 UCCSD(T)/aug-cc-pVTZ:aug-cc-pVQZ energy=   -587.853881304908

        UCCSD(T)        HF-SCF          UCCSD(T)        HF-SCF  
   -587.86743016   -586.91899542   -587.79777466   -586.89886773
 **********************************************************************************************************************************
 Molpro calculation terminated
 Variable memory released
