
   OpenMP run-time library returned nthreads = 16
 operating system is UNIX !

 force (u-0-11.local) : TURBOMOLE V7.3 ( 22142 ) 4 Jul 2018 at 18:12:42
 Copyright (C) 2018 TURBOMOLE GmbH, Karlsruhe


    2019-02-05 09:34:26.639 



                             T U R B O M O L E   

                          a o f o r c e - program

                        using direct algorithms for

                       SCF level calculations of
                         * harmonic force constants
                         * hyperpolarizabilities
                         * IR and RAMAN intensities
                         * VCD intensities

                       DFT level calculations of
                         * harmonic force constants
                         * IR intensities
                                                   
       Stephan Boecker, Peter Deglmann, Filipp Furche and Marco Haeser
                          Quantum Chemistry Group
                          Universitaet  Karlsruhe
                                   Germany

 
 

          OpenMP Shared-Memory Parallelization: 16 CPUs.

            By: Erik P. Almaraz and Filipp Furche
            Copyright 2009-2011 by UCI and TURBOMOLE GmbH.

 
 
     References :
 
       RI-J implementation:
         Peter Deglmann, Klaus May, Filipp Furche, Reinhart Ahlrichs
                 Chem. Phys. Lett. 384:103 (2004)
 
       Efficiency, technical details:
         Peter Deglmann, Filipp Furche, Reinhart Ahlrichs
                 Chem. Phys. Lett. 362:511 (2002)
 
       Search of lowest eigenvalues by iterative diagonalization:
         Peter Deglmann, Filipp Furche
                 J. Chem. Phys. 117:9535 (2002)
 
       Vibrational circular dichroism implementation:
        Kevin Reiter, Michael Kuehn, Florian Weigend
                 J. Chem. Phys. 146:054102 (2017)  
 
 


              +--------------------------------------------------+
              | Atomic coordinate, charge and isotop information |
              +--------------------------------------------------+

                    atomic coordinates            atom    charge  isotop
          0.22971085   -0.27904680   -0.02239857    c      6.000     0
         -0.18953582   -1.46999024   -2.32033592    c      6.000     0
         -0.41276122   -4.08301678   -2.43033711    c      6.000     0
         -0.21295737   -5.51547328   -0.23759488    c      6.000     0
          0.19012273   -4.31869965    2.06592722    c      6.000     0
          0.41179593   -1.70553722    2.17029531    c      6.000     0
         -0.39058100   -0.29998042   -3.99234134    h      1.000     0
         -0.76221810   -5.01092428   -4.22703931    h      1.000     0
         -0.38969115   -7.55658912   -0.32076342    h      1.000     0
          0.31234184   -5.43106224    3.78608433    h      1.000     0
          0.67205801   -0.71833685    3.94859641    h      1.000     0
          0.70092152    3.18478403    0.09660732    s     16.000     0
         -0.93206158    4.04270380   -2.07476425    o      8.000     0
         -0.36351904    3.80291465    2.66613998    o      8.000     0
 
       center of nuclear mass  :    0.00977534   -0.00128369    0.01732263
       center of nuclear charge:    0.00534602   -0.13049294    0.01129583

              +--------------------------------------------------+
              |               basis set information              |
              +--------------------------------------------------+

              we will work with the 1s 3p 5d 7f 9g ... basis set
              ...i.e. with spherical basis functions...

   type   atoms  prim   cont   basis
   ---------------------------------------------------------------------------
    c        6     66     46   aug-cc-pVTZ   [5s4p3d2f|19s6p3d2f]
    h        5     25     23   aug-cc-pVTZ   [4s3p2d|6s3p2d]
    s        1    122     50   aug-cc-pVTZ   [6s5p3d2f|42s17p3d2f]
    o        2     66     46   aug-cc-pVTZ   [5s4p3d2f|19s6p3d2f]
   ---------------------------------------------------------------------------
   total:   14    775    533
   ---------------------------------------------------------------------------

   total number of primitive shells          :  135
   total number of contracted shells         :  173
   total number of cartesian basis functions :  624
   total number of SCF-basis functions       :  533


 symmetry group of the molecule :   c1 

 the group has the following generators :
   c1(z)

    1 symmetry operations found

 there are 1 real representations :   a   

 maximum number of shells which are related by symmetry :  1


 determining totally symmetric integral contributions 
    - equivalent to irreducible tensor elements - 
 which can be formed within each triple of representations :

             representation triple      contributions

              a     a     a               1

    mo occupation :
   irrep   mo's   occupied
    a      533       37
 
 number of basis functions   :                    533
 number of occupied orbitals :                     37
 
  MOs are in ASCII format !


 reading orbital data $scfmo  from file mos
 orbital characterization : scfconv=8
 time elapsed for calculating density matrices :   0.024 sec

 number of non-frozen orbitals          :   533
 number of non-frozen occupied orbitals :    37
 Blocking parameters 
 shells:
    index      start shell   last shell  start bf    last bf    #bf 
       1             1         173             1        624    624
          size of I/O Block in Byte:              130830336
  
           ------------------
           density functional
           ------------------
 PBE0 hybrid functional
 exchange:    3/4 (LDA+PBE) + 1/4 HF
 correlation: LDA (PW) + PBE

 iterations will be done with small grid
  
 spherical integration : Lebedev's spherical grid
 spherical gridsize    :                     4
    i.e. gridpoints    :                   434
 value for diffuse not defined
 radial integration    : Chebyshev 2nd kind (scaling 3)
 radial gridsize       :                     6
 integration cells     :                    14
 partition function    : becke
 partition sharpness   :                     3
  
 
 Derivatives of quadrature weights will be included
 
          Overall gridpoints after grid construction =        145557
 Ordering of quadrature gridpoints disabled.
 
 
 
 
 OCCUPIED-OCCUPIED TENSOR SPACES :

          IRREP   tensor space dimension   number of roots

           a              1369                  36
 
 OCCUPIED-VIRTUAL TENSOR SPACES :

          IRREP   tensor space dimension   number of roots

           a             18352                  36
 
 
 
 
 CONSTRUCTING integral bounds

 setting up bound for integral derivative estimation

 increment for numerical differentiation : 0.00050000
 
 machine precision:   2.220446049250313E-016

 integral neglect threshold       :  0.10E-09
 integral storage threshold THIZE :  0.10E-04
 integral storage threshold THIME :         5

 
 
 
 PREPARING NUMERICAL INTEGRATION
 
 Remaining core memory for DFT =                 31623 MB
 
 Memory needed per atom    =                  4570 KiB
 
     i. e.                    14 atoms per loop

 Calculating ground state density on molecular grid

 Integral of ground state density: N =   73.99999137256393    


 
 
 CONSTRUCTING first deriv. of <mu|x,y,z|nu> -> Dip. deriv.
  dipole integral derivatives will be neglected if
  expon. factor <0.801282E-13
      ...terminated. cpu:       1.39       wall:       0.09
 
 
 
 
 CONSTRUCTING first deriv. of  <mu|nu>
                               <mu|h|nu>    -> RHS
              second deriv. of <mu|nu>      -> Hessian
                               <mu|h|nu>    -> Hessian
                               nucl. rep.   -> Hessian
     integrals are neglected if expon. factor <  8.012820512820513E-015
      ...terminated. cpu:       8.07       wall:       2.30
 
 
 
 
 CONSTRUCTING second deriv. of 2e energy    -> Hessian
   treating Coulomb (and exchange) contribution
     integrals will be neglected if total contribution <  8.012820512820513E-011
      ...terminated. cpu:    6380.69       wall:     398.81
   treating exchange-correlation contribution
      ...terminated. cpu:     563.57       wall:      38.07
 
 
 
 
 CONSTRUCTING S(i,j)xi
      ...terminated. cpu:       0.65       wall:       0.04
 
 
 
 
 CONSTRUCTING <i|x,y,z|j>*S(i,j)xi          -> Dip. deriv.
      ...terminated. cpu:       1.00       wall:       0.06
 
 
 
 
 CONSTRUCTING epsilon(i)*S(i,j)xi*S(i,j)chi -> Hessian
      ...terminated. cpu:       0.01       wall:       0.00
 
 
 
 
 CONSTRUCTING G(a,i)[S(k,l)xi]              -> RHS
              G(i,j)[S(k,l)xi]*S(i,j)chi    -> Hessian
 
         Maximum core memory set to                  32000 MB
         This corresponds to                 10671 vectors in CAO basis
      ...terminated. cpu:    5458.27       wall:     341.15
 
 
 
 
 CONSTRUCTING G(mu,nu)[D(kap,lam)]xi
 
          Maximum core memory set to                  32000 MB
          Atoms treated simultaneously :                    14
 max of dfo   111.700758468313     
      ...terminated. cpu:    3903.06       wall:     244.23
 
 
 
 
 CONSTRUCTING F(a,i)xi                      -> RHS
              F(i,j)xi*S(i,j)chi            -> Hessian
 
        Maximum core memory set to                 32000 MB
        This corresponds to                 19659 vectors in CAO basis
      ...terminated. cpu:       6.94       wall:       1.06
 
 
 
 
 CONSTRUCTING epsilon(i)*S(a,i)xi           -> RHS
      ...terminated. cpu:       2.89       wall:       0.36
 
 
 
 
 SOLVING CPHF equations
 
 Residuum convergence criterium   :  1.000000000000000E-005
 
 Maximum number of Davidson iterations set to                    25
  Switching to small grid
        preparing numerical integration ....
          Overall gridpoints after grid construction =         41828

 Calculating ground state density on molecular grid

 Integral of ground state density: N =   74.00006586997523    




                       Nonorthonormal Krylov Space Iteration


 total number of roots to be determined: 36


 maximum core memory set to 32000 MB,
 corresponding to    10671 vectors in CAO basis


 maximum number of simultaneously treated vectors (including degeneracy):       36


 Iteration IRREP Converged      Max. Euclidean
                 roots          residual norm

    1       a        0        1.430490727148664D-01
 
    2       a        0        1.665557824765492D-02
 
    3       a        0        1.852254714201994D-03
 
    4       a        0        1.719119085912308D-04
 
    5       a       34        1.218912954344287D-05
 
    6       a       36        9.367992581835616D-06
 

 converged!

  Switching to fine grid
        preparing numerical integration ....
          Overall gridpoints after grid construction =        145557

 Calculating ground state density on molecular grid

 Integral of ground state density: N =   73.99999137256408    



 Iteration IRREP Converged      Max. Euclidean
                 roots          residual norm

    7       a        1        9.977164541886403D-05
 

 NOTE: Residual norms are larger than 1.00D-05 due to mgrid option!

      ...terminated. cpu:   26699.29       wall:    1669.57
 
 
 
 
 CONSTRUCTING <a|x,y,z|i>*U(a,i)xi          -> Dip. deriv.
      ...terminated. cpu:       0.86       wall:       0.05
 
 
 
 
 CONSTRUCTING RHS(a,i)xi*U(a,i)chi          -> Hessian
      ...terminated. cpu:       0.15       wall:       0.01
 
 
 
 

            -----------------------
            permanent dipole moment
            -----------------------

                                   x                y                z
    electronic part       :    0.1123231095     6.5496499596    -1.0554508287
     nuclear   part       :    0.3902595206    -9.5259846456     0.8245958963
     total                :    0.5025826302    -2.9763346860    -0.2308549324

 with reference to the point :   0.0000000        0.0000000        0.0000000
 (given in atomic units)
    | dipole |       :    7.6946478537  debye

   ***  dipole moment & cartesian dipole gradients written onto
        $dipole, $dipgrad,  file=<dipgrad>  ***

             -----------------------------------
             rotational and vibrational analysis
             -----------------------------------


            ==============================================================
            ATOMIC WEIGHTS (average over the natural occurance of isotops)
            ==============================================================
            ('*' denotes special isotop !)
              1     c                12.01115
              2     c                12.01115
              3     c                12.01115
              4     c                12.01115
              5     c                12.01115
              6     c                12.01115
              7     h                 1.00797
              8     h                 1.00797
              9     h                 1.00797
             10     h                 1.00797
             11     h                 1.00797
             12     s                32.06400
             13     o                15.99940
             14     o                15.99940

          -------------------------------------------------
          CARTESIAN FORCE CONSTANT MATRIX (hartree/bohr**2)
         (translational & rotational space projected out)
          -------------------------------------------------

   ATOM              1 c                           2 c 
                  dx        dy        dz        dx        dy        dz
   1 c     dx  0.1555291
           dy  0.0292354 0.4794093
           dz  0.0718603-0.0145418 0.6717645
   2 c     dx -0.0722154-0.0222962-0.0373639 0.1541487
           dy -0.0186597-0.1580435-0.0608290 0.0368683 0.6905110
           dz -0.0393240-0.0997031-0.2866148 0.0825824-0.0425801 0.6890600
   3 c     dx  0.0075478-0.0078358-0.0033999-0.0671945-0.0280055-0.0065815
           dy -0.0129915-0.0213472-0.0785803-0.0193180-0.3400305 0.0276115
           dz -0.0008890-0.0333616 0.0271789-0.0119156-0.0383835-0.1242653
   4 c     dx -0.0083111 0.0007303-0.0082580 0.0099104 0.0069160 0.0065069
           dy  0.0009490 0.0020987 0.0036645 0.0004943-0.0355504 0.0240460
           dz -0.0081857 0.0037502-0.0685126 0.0091205 0.0729183 0.0373310
   5 c     dx  0.0101780-0.0002385 0.0092478-0.0078649-0.0078589-0.0042461
           dy  0.0070223-0.0325851 0.0731832-0.0067263-0.0468130-0.0268632
           dz  0.0067837 0.0281775 0.0358869-0.0038011-0.0330440-0.0193461
   6 c     dx -0.0675419 0.0056247-0.0208436 0.0061109 0.0017387-0.0050927
           dy -0.0013644-0.1764525 0.0756670 0.0064659 0.0612162 0.0221463
           dz -0.0190323 0.1141580-0.2729552-0.0103920-0.0112116-0.0521223
   7 h     dx  0.0037236 0.0026552-0.0049883-0.0427216 0.0133229-0.0259938
           dy -0.0006822 0.0133375-0.0090129 0.0127514-0.1444392 0.1289851
           dz -0.0033174 0.0135199-0.0216540-0.0240857 0.1286868-0.2413943
   8 h     dx  0.0072058-0.0010051-0.0004508 0.0032200-0.0009964-0.0030458
           dy -0.0014529-0.0070678 0.0001897-0.0056026-0.0086378-0.0292233
           dz -0.0009725-0.0010932 0.0020272-0.0002860 0.0011033 0.0013804
   9 h     dx -0.0009135 0.0001815-0.0000751 0.0066957-0.0000645-0.0012887
           dy  0.0000907 0.0007256 0.0001069 0.0000624 0.0001053 0.0041455
           dz -0.0000794 0.0000987-0.0015474-0.0013933 0.0028330-0.0041696
  10 h     dx  0.0071811-0.0007683-0.0010412-0.0009442 0.0000664-0.0001452
           dy -0.0016156-0.0070877-0.0007457-0.0001449-0.0009819-0.0011195
           dz -0.0005799 0.0003837 0.0020797 0.0000810-0.0009072 0.0002265
  11 h     dx  0.0040599-0.0006257-0.0019391 0.0071832-0.0000014-0.0011684
           dy  0.0022352 0.0133706 0.0126612-0.0000006-0.0021939 0.0037475
           dz -0.0036461-0.0100802-0.0220889-0.0008946 0.0032532-0.0036346
  12 s     dx -0.0734005-0.0050903 0.0033434 0.0038372-0.0075695 0.0002884
           dy -0.0516929-0.0836872 0.0041366-0.0028408-0.0111340-0.0153542
           dz  0.0010064-0.0012478-0.0428941-0.0020813-0.0146363 0.0065214
  13 o     dx  0.0130970 0.0011602-0.0041242-0.0000754 0.0010823-0.0028766
           dy  0.0278512-0.0133377 0.0242641-0.0002675 0.0004869 0.0001231
           dz -0.0035992 0.0114882-0.0090349-0.0001154-0.0000037-0.0051257
  14 o     dx  0.0138600-0.0017274-0.0019675-0.0000901 0.0031614 0.0003853
           dy  0.0210753-0.0093331-0.0301635 0.0005547-0.0044951 0.0040385
           dz -0.0000247-0.0115486-0.0136354 0.0005448-0.0071991 0.0021534

   ATOM              3 c                           4 c 
                  dx        dy        dz        dx        dy        dz
   3 c     dx  0.1513236
           dy  0.0463065 0.6764734
           dz  0.0862894 0.0163657 0.7053185
   4 c     dx -0.0669636-0.0004099-0.0199548 0.1465782
           dy  0.0091008-0.1867619 0.1306474 0.0465892 0.7312129
           dz -0.0257655 0.0673059-0.2747038 0.0724751-0.0030855 0.6593635
   5 c     dx  0.0080019 0.0085762-0.0108021-0.0703069-0.0238173-0.0335017
           dy  0.0018650 0.0603691-0.0186996-0.0156694-0.1672677-0.0535289
           dz -0.0070147 0.0300712-0.0590479-0.0393803-0.1170415-0.2904325
   6 c     dx -0.0065533-0.0000440 0.0007551 0.0076189-0.0061769-0.0027042
           dy  0.0004094-0.0527759 0.0305457-0.0131087-0.0248579-0.0787692
           dz  0.0011641 0.0243038-0.0146186-0.0001177-0.0299708 0.0288516
   7 h     dx  0.0038213-0.0017964 0.0029767 0.0072159-0.0014079-0.0010296
           dy  0.0030634-0.0113647 0.0250225-0.0010066-0.0049446-0.0016208
           dz -0.0001308-0.0036170 0.0056647-0.0011992-0.0008940 0.0019550
   8 h     dx -0.0445539-0.0220335-0.0441897 0.0023256-0.0017867-0.0013310
           dy -0.0222999-0.1127638-0.1070075 0.0030167 0.0109271 0.0158412
           dz -0.0435649-0.1060705-0.2655692-0.0044946-0.0154557-0.0185119
   9 h     dx  0.0028371 0.0024495 0.0000608-0.0369040-0.0255621-0.0041880
           dy -0.0019894-0.0136033-0.0047210-0.0253750-0.3288622-0.0107769
           dz  0.0026774 0.0267930 0.0059839-0.0041879-0.0107572-0.0582269
  10 h     dx  0.0070058-0.0012847-0.0015512 0.0023665 0.0029241-0.0043220
           dy -0.0010433-0.0000594-0.0028972-0.0010161 0.0106591-0.0129999
           dz -0.0016763-0.0041866-0.0033924-0.0010895 0.0184118-0.0182922
  11 h     dx -0.0010306 0.0001836 0.0002284 0.0073967-0.0012491-0.0005378
           dy  0.0001304-0.0004991 0.0006447-0.0006802-0.0051780 0.0011151
           dz  0.0001684 0.0011352 0.0001433-0.0003392 0.0005024 0.0020024
  12 s     dx  0.0079652 0.0017173-0.0035149-0.0011051-0.0017585-0.0002720
           dy  0.0046857 0.0034443 0.0019859-0.0003182-0.0016529-0.0000965
           dz -0.0029368-0.0025037-0.0039157-0.0001390 0.0002014-0.0020877
  13 o     dx -0.0005977 0.0004430 0.0013129 0.0002449 0.0008192 0.0013274
           dy -0.0013448 0.0000479 0.0014053 0.0002337 0.0000581 0.0003639
           dz  0.0007229 0.0004297 0.0027982-0.0000625 0.0000750 0.0005452
  14 o     dx -0.0016092-0.0017981 0.0011939-0.0000665 0.0008820-0.0010857
           dy -0.0030425-0.0011290-0.0015466 0.0000982 0.0001197-0.0004170
           dz  0.0000481 0.0009423-0.0015747 0.0002406-0.0003439 0.0007190

   ATOM              5 c                           6 c 
                  dx        dy        dz        dx        dy        dz
   5 c     dx  0.1469821
           dy  0.0405753 0.6816676
           dz  0.0701449-0.0320815 0.7042951
   6 c     dx -0.0670680-0.0291278-0.0062656 0.1504806
           dy -0.0195127-0.3397883 0.0223506 0.0470827 0.6832109
           dz -0.0115743-0.0435471-0.1248914 0.0698691 0.0292590 0.7004838
   7 h     dx -0.0010592-0.0001337 0.0000584 0.0069166-0.0007504-0.0018683
           dy -0.0000485-0.0002948-0.0007065-0.0008983-0.0015445-0.0033909
           dz  0.0001328-0.0011899-0.0000311-0.0021228-0.0029038-0.0040798
   8 h     dx  0.0071287-0.0000961-0.0012811-0.0008697 0.0002394 0.0004836
           dy -0.0002206-0.0008546 0.0033572 0.0001211-0.0011743 0.0009843
           dz -0.0011509 0.0046683-0.0026882 0.0002335 0.0007158 0.0003190
   9 h     dx  0.0022702-0.0049933 0.0004953 0.0065736-0.0007269-0.0017765
           dy -0.0006817-0.0111225 0.0032535-0.0009462 0.0007696-0.0034863
           dz -0.0021271-0.0282763 0.0040460-0.0016989-0.0021903-0.0047360
  10 h     dx -0.0373793 0.0072321-0.0157266 0.0039546-0.0017027 0.0025898
           dy  0.0072855-0.1368912 0.1233614 0.0021347-0.0114994 0.0283808
           dz -0.0163699 0.1224226-0.2486227-0.0002128-0.0020654 0.0035096
  11 h     dx  0.0031799-0.0007217-0.0027731-0.0442493-0.0190518-0.0315323
           dy -0.0039048-0.0089968-0.0265956-0.0194802-0.1187491-0.1147091
           dz  0.0004217 0.0023632 0.0038563-0.0335387-0.1145992-0.2656355
  12 s     dx  0.0087334 0.0022869 0.0002959 0.0042112-0.0034823 0.0000625
           dy  0.0039087 0.0036383-0.0022307 0.0007423-0.0140854 0.0134801
           dz  0.0000898 0.0029143-0.0047578 0.0030170 0.0139608 0.0089360
  13 o     dx -0.0019174-0.0019137-0.0012331-0.0000319 0.0046415 0.0006070
           dy -0.0023973-0.0013098 0.0023345-0.0006130-0.0047674-0.0047582
           dz -0.0003192-0.0005329-0.0011215 0.0000009 0.0056008 0.0024445
  14 o     dx -0.0008783 0.0004002-0.0003027 0.0004476 0.0008610 0.0015171
           dy -0.0016653 0.0002488-0.0012061-0.0001579 0.0004981 0.0005081
           dz  0.0000542-0.0008320 0.0028547-0.0013963 0.0002818-0.0055056

   ATOM              7 h                           8 h 
                  dx        dy        dz        dx        dy        dz
   7 h     dx  0.0308457
           dy -0.0130051 0.1480794
           dz  0.0292344-0.1394280 0.2595688
   8 h     dx -0.0039059 0.0002021 0.0008853 0.0343303
           dy  0.0004562 0.0012646 0.0005178 0.0252002 0.1161551
           dz  0.0006280-0.0004562 0.0005475 0.0486802 0.1163933 0.2827458
   9 h     dx  0.0003545 0.0000448-0.0000344-0.0038456 0.0003085 0.0008217
           dy -0.0001869-0.0006658-0.0003185 0.0004817 0.0009348 0.0004781
           dz  0.0001251 0.0011780 0.0002022 0.0006501-0.0007947 0.0009398
  10 h     dx -0.0012724 0.0000666 0.0002507 0.0004102 0.0000849-0.0002584
           dy  0.0001514-0.0000212 0.0001038-0.0001512 0.0003317-0.0007577
           dz  0.0001645 0.0000849-0.0000347-0.0001516 0.0009185-0.0010845
  11 h     dx -0.0001137-0.0000520-0.0000783-0.0012992 0.0001186 0.0001902
           dy  0.0001948 0.0006758 0.0009881 0.0000503 0.0000052-0.0000999
           dz -0.0001281-0.0008497-0.0008870 0.0000953-0.0001407-0.0000393
  12 s     dx -0.0040576-0.0011161-0.0011567-0.0005133-0.0006082-0.0003363
           dy -0.0013941 0.0000327 0.0035777-0.0001433 0.0018512 0.0010457
           dz  0.0008373-0.0032016-0.0028414-0.0002550-0.0008978-0.0000348
  13 o     dx -0.0003232 0.0006296 0.0015730 0.0002055 0.0006256 0.0003361
           dy  0.0006638-0.0003140 0.0015528 0.0002635-0.0001956-0.0002548
           dz -0.0000693 0.0022852 0.0028041 0.0001654 0.0007777 0.0003319
  14 o     dx  0.0005761 0.0000509 0.0000490 0.0001615 0.0002524 0.0001739
           dy  0.0012303 0.0001989-0.0005956-0.0002249-0.0007757-0.0002166
           dz  0.0000529 0.0011109 0.0001801-0.0002548-0.0009156-0.0003636

   ATOM              9 h                          10 h 
                  dx        dy        dz        dx        dy        dz
   9 h     dx  0.0273904
           dy  0.0280785 0.3515845
           dz  0.0053364 0.0116991 0.0562181
  10 h     dx -0.0038604 0.0003326 0.0007248 0.0266276
           dy  0.0005304 0.0009128 0.0006735-0.0070189 0.1425366
           dz  0.0005322-0.0006016 0.0009904 0.0187750-0.1344798 0.2640702
  11 h     dx  0.0003139-0.0000926-0.0001865-0.0039723 0.0003191 0.0006393
           dy -0.0002743-0.0005770-0.0012380 0.0003427 0.0012710 0.0004489
           dz -0.0000175 0.0002690 0.0001402 0.0003736-0.0005551 0.0006119
  12 s     dx -0.0009710 0.0000828 0.0000792-0.0003626-0.0003423 0.0003685
           dy -0.0004278 0.0003697 0.0000973-0.0004259 0.0018555-0.0007705
           dz  0.0000296 0.0000378-0.0004401 0.0002850 0.0012228-0.0001792
  13 o     dx  0.0000368 0.0000720 0.0001526 0.0001401 0.0004747-0.0002472
           dy  0.0002397-0.0002972 0.0000411-0.0001791-0.0008936 0.0002176
           dz  0.0000351 0.0000292 0.0002996 0.0001253 0.0007737-0.0002477
  14 o     dx  0.0000222 0.0000711-0.0000725 0.0001052 0.0004363-0.0002333
           dy  0.0002161-0.0002742-0.0001571 0.0003303-0.0001322 0.0001231
           dz  0.0000691-0.0001147 0.0002997-0.0000796-0.0009610 0.0003651

   ATOM             11 h                          12 s 
                  dx        dy        dz        dx        dy        dz
  11 h     dx  0.0323221
           dy  0.0218688 0.1204692
           dz  0.0369660 0.1231061 0.2857491
  12 s     dx -0.0038517-0.0003497 0.0014148 0.4093882
           dy -0.0021289 0.0000066-0.0027806-0.0726571 0.2443571
           dz -0.0008483 0.0035472-0.0028723 0.0250495-0.0117303 0.6443731
  13 o     dx  0.0005133-0.0002208-0.0001605-0.2126947 0.0784736-0.1803862
           dy  0.0013051 0.0002725 0.0002522 0.0608015-0.0801851 0.0823993
           dz -0.0000022-0.0010690 0.0001449-0.1532169 0.0738923-0.2548316
  14 o     dx -0.0004522 0.0000885-0.0007151-0.1371787 0.0442188 0.1563321
           dy  0.0001280 0.0001230-0.0018757 0.0280854-0.0648108-0.0700660
           dz  0.0010419-0.0025473 0.0025093 0.1275947-0.0652527-0.3449757

   ATOM             13 o                          14 o 
                  dx        dy        dz        dx        dy        dz
  13 o     dx  0.1714119
           dy -0.0814403 0.0920039
           dz  0.1767091-0.1030393 0.2836219
  14 o     dx  0.0299909-0.0051166-0.0203740 0.0951115
           dy -0.0048470 0.0084311 0.0092932-0.0417807 0.0713305
           dz  0.0070095-0.0049016-0.0226291-0.1349005 0.0922816 0.3796028
 

   *** projected hessian written onto $hessian (projected), file=<hessian> ***

 dipole moment in principle axis system (a.u.) :
     0.5353156694    -2.9795423378    -0.0146987785
 norm :   3.02728450314932     

 rotational constants b for rotations around axis of inertia
 and optical intensities for (1 <-- 0) transition

   b   :     0.0263816419     0.1141452053     0.0331204522   (cm**(-1))
   b   :         790.9017        3421.9872         992.9262     (MHz)
  int. :     0.2865628659     8.8776725430     0.0002160541     (a.u.)

   x   :     0.9917091090     0.0088639304     0.1281970122
   y   :    -0.0024324014     0.9987342673    -0.0502388959
   z   :    -0.1284800632     0.0495105441     0.9904754310

   ***  normal modes written onto $vibrational normal modes, file=<vib_normal_modes>  ***

   ***  vibrational spectroscopic data written onto$vibrational spectrum   
        file=<vibspectrum>  ***

          ---------------------------------------------------
          NORMAL MODES and VIBRATIONAL FREQUENCIES (cm**(-1))
          ---------------------------------------------------

 imaginary wave numbers indicate a negative curvature of the energy surface.
 zero frequency modes have no physical meaning except being generators of
 translations and rotations. each vibrational normal mode - given in terms of
 cartesian displacement vectors of all atoms - has been normalized to unity.
 to obtain mass-weigthed normal coordinates in a.u. divide the tabulated
 modes by sqrt(reduced mass * 1822.88853).
 band intensities or cross sections refer to independent non-degenerate normal
 modes, that is, the intensities of degenerate modes have yet to be added.
 dDIP/dQ is the normal mode derivative of the dipole moment.


       mode               1        2        3        4        5        6

     frequency           0.00     0.00     0.00     0.00     0.00     0.00

     symmetry                                                             

        IR                -        -        -        -        -        - 
|dDIP/dQ|   (a.u.)     0.0000   0.0000   0.0000   0.0000   0.0000   0.0000
intensity (km/mol)       0.00     0.00     0.00     0.00     0.00     0.00
intensity (  %   )       0.00     0.00     0.00     0.00     0.00     0.00
 
       RAMAN              -        -        -        -        -        - 
 
  1   c           x  -0.14549  0.11099 -0.02806 -0.07486  0.01215  0.10648
                  y  -0.08445 -0.18733  0.10586 -0.05351  0.00590  0.03622
                  z   0.01879 -0.05652 -0.08745  0.07170 -0.21160  0.10419
  2   c           x   0.02424  0.12467  0.04256 -0.14155  0.07345  0.28082
                  y  -0.06767 -0.16554  0.13322 -0.14195 -0.09867 -0.00638
                  z  -0.02087 -0.07031 -0.11451  0.12970 -0.16859  0.09447
  3   c           x   0.02073  0.17719  0.18462 -0.06960  0.05797  0.32922
                  y  -0.06594 -0.16862  0.12351 -0.15215 -0.10221 -0.01160
                  z  -0.05480 -0.10374 -0.17207  0.22613 -0.05303  0.12032
  4   c           x  -0.15291  0.21624  0.25661  0.06956 -0.01904  0.20313
                  y  -0.08104 -0.19347  0.08654 -0.07366 -0.00098  0.02591
                  z  -0.04884 -0.12353 -0.20278  0.26473  0.02012  0.15631
  5   c           x  -0.32304  0.20246  0.18566  0.13633 -0.08047  0.02832
                  y  -0.09779 -0.21566  0.05818  0.01449  0.10397  0.06835
                  z  -0.01038 -0.10959 -0.17563  0.20725 -0.02366  0.16485
  6   c           x  -0.31910  0.14992  0.04361  0.06413 -0.06481 -0.01971
                  y  -0.09947 -0.21254  0.06793  0.02446  0.10726  0.07346
                  z   0.02344 -0.07615 -0.11807  0.11089 -0.13927  0.13890
  7   h           x   0.15699  0.09332 -0.01655 -0.24995  0.13273  0.37575
                  y  -0.05593 -0.14758  0.15877 -0.20323 -0.17551 -0.03575
                  z  -0.02862 -0.05396 -0.08953  0.09985 -0.22949  0.06250
  8   h           x   0.15345  0.18782  0.23966 -0.12184  0.10592  0.46548
                  y  -0.05272 -0.15202  0.14372 -0.22193 -0.18382 -0.04525
                  z  -0.08744 -0.11438 -0.19321  0.27233 -0.02021  0.11119
  9   h           x  -0.15586  0.25727  0.36756  0.12589 -0.03123  0.24075
                  y  -0.07970 -0.19596  0.07876 -0.08161 -0.00360  0.02184
                  z  -0.07553 -0.14963 -0.24774  0.34015  0.11031  0.17634
 10   h           x  -0.45920  0.23287  0.24151  0.24517 -0.14080 -0.07077
                  y  -0.10948 -0.23586  0.02731  0.07505  0.18363  0.09724
                  z  -0.00826 -0.12481 -0.19956  0.23868  0.03214  0.19057
 11   h           x  -0.45015  0.13800 -0.01460  0.11381 -0.11178 -0.15565
                  y  -0.11217 -0.23070  0.04328  0.09101  0.18864  0.10542
                  z   0.04966 -0.06432 -0.09587  0.06668 -0.17758  0.14105
 12   s           x  -0.13880  0.04125 -0.21630 -0.17142  0.03350  0.04413
                  y  -0.08736 -0.17934  0.12883 -0.03572  0.00808  0.04548
                  z   0.07713 -0.01300 -0.01070 -0.06387 -0.35946  0.08180
 13   o           x   0.03060  0.01395 -0.25717 -0.29275  0.10572  0.17778
                  y  -0.06588 -0.18384  0.08758 -0.15564 -0.08182 -0.01416
                  z  -0.04178  0.00575  0.00374 -0.02001 -0.44929 -0.04228
 14   o           x  -0.33183  0.04042 -0.25655 -0.07587 -0.04019 -0.13963
                  y  -0.09915 -0.23481  0.01506  0.01809  0.13606  0.06908
                  z   0.00000  0.00000  0.00000 -0.03723 -0.42077  0.00000

reduced mass(g/mol)     7.240    8.284    8.761    7.251   13.055    6.152


       mode               7        8        9       10       11       12

     frequency          32.28   131.99   168.54   266.06   368.91   399.90

     symmetry            a        a        a        a        a        a   

        IR               YES      YES      YES      YES      YES      YES
|dDIP/dQ|   (a.u.)     0.0007   0.0013   0.0002   0.0007   0.0001   0.0031
intensity (km/mol)       0.78     3.10     0.05     0.97     0.03    17.41
intensity (  %   )       0.36     1.44     0.03     0.45     0.01     8.07
 
       RAMAN             YES      YES      YES      YES      YES      YES
 
  1   c           x   0.00831  0.31867  0.03928 -0.05448 -0.04136 -0.22572
                  y  -0.00252  0.01324 -0.01095  0.09812  0.01262 -0.00597
                  z   0.04602 -0.04663  0.21463  0.01366 -0.23946  0.03885
  2   c           x  -0.19760  0.23466  0.04674 -0.12468 -0.09076  0.15728
                  y   0.04641  0.02484  0.13481  0.20914 -0.09608  0.03359
                  z   0.06068 -0.03358  0.13781 -0.00689 -0.22178 -0.04283
  3   c           x  -0.21015 -0.06854  0.02815 -0.00959  0.04250  0.11266
                  y   0.04727  0.04910  0.15540  0.22075 -0.13313  0.05302
                  z   0.02728  0.01275 -0.05836 -0.01269 -0.05478 -0.03250
  4   c           x  -0.00512 -0.26553 -0.02866  0.14077 -0.00626 -0.22098
                  y   0.00148  0.06921  0.00984  0.24766  0.00442  0.10409
                  z  -0.02324  0.04316 -0.14961 -0.00688  0.05054  0.03328
  5   c           x   0.20814 -0.06966 -0.04730 -0.00108 -0.04084  0.12902
                  y  -0.04662  0.05611 -0.14615  0.21644  0.14457  0.03981
                  z  -0.03371  0.01508 -0.06415  0.03618 -0.02642  0.00852
  6   c           x   0.20917  0.23311  0.00639 -0.11608  0.05312  0.15275
                  y  -0.04970  0.03155 -0.14761  0.20407  0.12406  0.02279
                  z   0.00107 -0.03146  0.12835  0.06252 -0.22592  0.02168
  7   h           x  -0.34059  0.30090  0.06033 -0.18901 -0.17862  0.39711
                  y   0.09652  0.02238  0.27504  0.29218 -0.20387  0.05213
                  z   0.11263 -0.04232  0.23664  0.06390 -0.28349 -0.05630
  8   h           x  -0.37421 -0.19625  0.04779  0.00254  0.12106  0.25125
                  y   0.08460  0.05879  0.28828  0.18429 -0.27279  0.02109
                  z   0.03974  0.03271 -0.13055  0.00461  0.00110 -0.04193
  9   h           x  -0.01019 -0.56260 -0.05733  0.30702 -0.00496 -0.49254
                  y   0.00298  0.09298  0.01770  0.23412 -0.00106  0.12675
                  z  -0.04923  0.08730 -0.28187 -0.03049  0.18278  0.06566
 10   h           x   0.36866 -0.19874 -0.09529  0.00748 -0.08816  0.27890
                  y  -0.08270  0.07196 -0.27015  0.18032  0.27278 -0.00187
                  z  -0.06861  0.03434 -0.14066  0.01135  0.05872 -0.03008
 11   h           x   0.36390  0.29706  0.02232 -0.19764  0.14755  0.37461
                  y  -0.10320  0.03620 -0.29740  0.29084  0.24184  0.03530
                  z   0.00795 -0.04441  0.21130  0.02161 -0.30254 -0.02013
 12   s           x   0.00967 -0.00527 -0.00192  0.02160  0.01716 -0.11299
                  y  -0.00320  0.05501  0.00296 -0.19046 -0.02141 -0.21131
                  z   0.07808  0.00285 -0.00841 -0.01333  0.18903 -0.00406
 13   o           x   0.29979 -0.12631 -0.10375  0.03488  0.02948  0.04846
                  y  -0.02096 -0.14380 -0.32843 -0.29192 -0.29096  0.12193
                  z  -0.14723  0.01067 -0.07193 -0.08620  0.07389  0.00197
 14   o           x  -0.32922 -0.12777  0.07550  0.05019 -0.00090  0.04815
                  y   0.03024 -0.16745  0.32514 -0.29883  0.28916  0.10118
                  z  -0.07055  0.00991 -0.06126  0.04395  0.10780 -0.00888

reduced mass(g/mol)     6.657    5.728    6.846    8.372    7.612    5.441


       mode              13       14       15       16       17       18

     frequency         405.22   468.50   571.36   624.25   676.46   712.23

     symmetry            a        a        a        a        a        a   

        IR               YES      YES      YES      YES      YES      YES
|dDIP/dQ|   (a.u.)     0.0001   0.0030   0.0046   0.0001   0.0024   0.0047
intensity (km/mol)       0.00    15.75    38.19     0.01    10.10    39.33
intensity (  %   )       0.00     7.30    17.70     0.00     4.68    18.23
 
       RAMAN             YES      YES      YES      YES      YES      YES
 
  1   c           x  -0.00040  0.19089 -0.25141 -0.01907  0.02801  0.08818
                  y   0.00127 -0.09075  0.07179  0.00726  0.33550 -0.00466
                  z  -0.02121 -0.03106  0.03676 -0.14096  0.01383 -0.01210
  2   c           x   0.19766 -0.02560 -0.06193 -0.00775  0.06389 -0.07774
                  y  -0.02713  0.03635  0.00563  0.24599  0.05119  0.00781
                  z  -0.04983 -0.04278  0.03947 -0.20702  0.22938  0.01464
  3   c           x  -0.19950 -0.07497  0.11294  0.05276  0.01568  0.14992
                  y   0.00377  0.05776 -0.01541  0.23224  0.03576 -0.01235
                  z   0.02109 -0.02440  0.00516  0.24891  0.25012 -0.01772
  4   c           x   0.00183  0.13315 -0.17211  0.01962  0.01170 -0.07533
                  y  -0.00142  0.09922 -0.02236 -0.00751 -0.31866 -0.00272
                  z   0.00187 -0.01219  0.02210  0.14424 -0.01829  0.00999
  5   c           x   0.19606 -0.06256  0.10716  0.01115 -0.05008  0.14888
                  y  -0.00448  0.05453 -0.01244 -0.25725  0.06126 -0.01199
                  z  -0.03299  0.04903 -0.03644  0.22893 -0.24019 -0.02360
  6   c           x  -0.20524 -0.01738 -0.07087 -0.05017  0.00226 -0.07777
                  y   0.02836  0.03228  0.00943 -0.22323  0.07513  0.00815
                  z   0.00622  0.05032 -0.02267 -0.22571 -0.23153  0.00694
  7   h           x   0.43014 -0.17988  0.27841 -0.02871 -0.01557 -0.46682
                  y  -0.06134  0.11827 -0.06403  0.11947 -0.21385  0.04542
                  z  -0.10103  0.03348 -0.04912 -0.28882  0.06097  0.08595
  8   h           x  -0.45934 -0.24489  0.53737  0.05223 -0.09143 -0.16636
                  y   0.01793  0.01832 -0.02120  0.06148  0.38474  0.01871
                  z   0.06459  0.02991 -0.07471  0.33277  0.09343  0.02752
  9   h           x   0.00444  0.22068 -0.11760 -0.03866 -0.04649 -0.63598
                  y  -0.00217  0.09225 -0.02694  0.01502 -0.30855  0.04262
                  z   0.01451 -0.02377  0.01474 -0.28450 -0.01040  0.08729
 10   h           x   0.45367 -0.23785  0.53816  0.03488 -0.10730 -0.16833
                  y  -0.01836  0.01944 -0.01947 -0.09603  0.39049  0.01951
                  z  -0.05998  0.03785 -0.07130  0.32688 -0.02602  0.01948
 11   h           x  -0.44918 -0.18910  0.27995 -0.04943 -0.03379 -0.47382
                  y   0.06398  0.12057 -0.06313 -0.08790 -0.20585  0.04775
                  z   0.02281  0.02608 -0.03460 -0.29703 -0.07714  0.04457
 12   s           x   0.00313  0.19286  0.15640 -0.00041 -0.01680 -0.00067
                  y   0.00169 -0.24594  0.09911  0.00019 -0.10030 -0.00322
                  z   0.01994 -0.03511 -0.01384 -0.00240 -0.00315 -0.00005
 13   o           x  -0.00066 -0.17695 -0.06650 -0.00723  0.00192  0.00225
                  y  -0.04059  0.14186 -0.11203  0.00035  0.00778  0.00364
                  z   0.00738  0.46027  0.10509 -0.00865  0.02162 -0.00129
 14   o           x   0.00286 -0.27757 -0.09007  0.00501 -0.00333  0.00229
                  y   0.03692  0.18560 -0.10184  0.00040  0.00995  0.00369
                  z   0.01258 -0.38811 -0.09712 -0.00960 -0.02038  0.00111

reduced mass(g/mol)     2.890   13.055    4.429    6.355    6.431    1.801


       mode              19       20       21       22       23       24

     frequency         768.57   866.05   933.48   994.99  1000.48  1007.10

     symmetry            a        a        a        a        a        a   

        IR               YES      YES      YES      YES      YES      YES
|dDIP/dQ|   (a.u.)     0.0043   0.0007   0.0020   0.0009   0.0002   0.0079
intensity (km/mol)      33.31     0.78     6.95     1.57     0.09   110.45
intensity (  %   )      15.44     0.36     3.22     0.73     0.04    51.20
 
       RAMAN             YES      YES      YES      YES      YES      YES
 
  1   c           x   0.19925 -0.00029 -0.07460 -0.00075 -0.01888 -0.03881
                  y  -0.01291  0.00012  0.00551 -0.00068 -0.01276 -0.04833
                  z  -0.02735  0.00066  0.01028  0.00060  0.00188  0.00289
  2   c           x  -0.08181 -0.05702  0.09295 -0.09674  0.05933 -0.03001
                  y   0.00983  0.00493 -0.00428  0.00390  0.01116  0.13276
                  z   0.02037  0.01074 -0.01406  0.01764 -0.02680 -0.21185
  3   c           x   0.01185 -0.08550  0.01302  0.07540 -0.08306  0.04307
                  y   0.00275  0.00721 -0.00252  0.00002  0.00853  0.00399
                  z   0.00831  0.01321 -0.00504 -0.00809  0.01584  0.02949
  4   c           x  -0.13838 -0.00120 -0.11215  0.00425  0.07226 -0.05822
                  y   0.00023  0.00022 -0.00068 -0.00184 -0.04010 -0.26231
                  z   0.01861 -0.00304  0.01504 -0.00629 -0.01138 -0.00528
  5   c           x   0.00921  0.08575  0.01170 -0.08496 -0.07505  0.03439
                  y   0.00353 -0.00741 -0.00278  0.00089  0.00904  0.00942
                  z  -0.01064 -0.01045  0.00143  0.01277  0.00599 -0.04012
  6   c           x  -0.08466  0.05898  0.09387  0.10429  0.05274  0.02736
                  y   0.01060 -0.00534 -0.00451 -0.00346  0.00961  0.10872
                  z   0.00298 -0.00529 -0.01146 -0.00729  0.01213  0.22370
  7   h           x   0.01634  0.41454 -0.50034  0.51616 -0.38048  0.11369
                  y  -0.00102 -0.05038  0.07023 -0.09756  0.09335  0.21354
                  z   0.00193 -0.08174  0.10467 -0.12154  0.07888 -0.17860
  8   h           x   0.55967  0.54543 -0.10096 -0.37337  0.50739 -0.22540
                  y  -0.02617 -0.03995  0.01116  0.05807 -0.03405  0.03228
                  z  -0.08287 -0.08475  0.00916  0.04957 -0.07849  0.05480
  9   h           x   0.51810  0.00355  0.63261 -0.03404 -0.46176  0.20161
                  y  -0.05255 -0.00000 -0.06149  0.00203  0.00224 -0.28894
                  z  -0.07248 -0.00766 -0.08766 -0.02053  0.06311 -0.03800
 10   h           x   0.56342 -0.54662 -0.08796  0.43323  0.46355 -0.23342
                  y  -0.02694  0.04068  0.00932 -0.06196 -0.02697  0.04072
                  z  -0.07020  0.06597  0.01730 -0.06421 -0.05413  0.01189
 11   h           x   0.01664 -0.42624 -0.50933 -0.56529 -0.32223  0.16322
                  y  -0.00089  0.05296  0.07319  0.11048  0.08197  0.18401
                  z  -0.00637  0.03605  0.03801  0.03288  0.03051  0.16712
 12   s           x  -0.02814 -0.00021  0.00536  0.00023  0.01121  0.22309
                  y  -0.02975  0.00010  0.01065  0.00003 -0.00072 -0.09534
                  z   0.00200 -0.00219 -0.00018 -0.00568 -0.00104 -0.03127
 13   o           x   0.00496  0.00102  0.00468  0.00299 -0.00927 -0.25336
                  y   0.02870 -0.00183 -0.01100 -0.00336  0.00323  0.12662
                  z  -0.01802  0.00210  0.01148  0.00453 -0.00930 -0.28015
 14   o           x   0.00943 -0.00054  0.00162 -0.00310 -0.00651 -0.17829
                  y   0.02717  0.00162 -0.00985  0.00348  0.00177  0.09487
                  z   0.01927  0.00245 -0.01341  0.00766  0.01063  0.34261

reduced mass(g/mol)     1.921    1.250    1.424    1.383    1.323    9.902


       mode              25       26       27       28       29       30

     frequency        1023.90  1047.81  1079.29  1085.14  1114.19  1161.27

     symmetry            a        a        a        a        a        a   

        IR               YES      YES      YES      YES      YES      YES
|dDIP/dQ|   (a.u.)     0.0058   0.0019   0.0053   0.0029   0.0110   0.0002
intensity (km/mol)      59.03     6.40    50.33    15.41   215.71     0.05
intensity (  %   )      27.36     2.97    23.33     7.14   100.00     0.02
 
       RAMAN             YES      YES      YES      YES      YES      YES
 
  1   c           x  -0.01945 -0.01482  0.00436  0.03322  0.00603 -0.00047
                  y   0.05877 -0.11758 -0.01424  0.31185 -0.00511  0.00047
                  z   0.00575 -0.00422  0.04103  0.01478  0.04727 -0.00359
  2   c           x   0.05192 -0.00634 -0.00953 -0.00661  0.00895 -0.00022
                  y  -0.19772 -0.04359  0.09129  0.01202  0.09423 -0.01010
                  z   0.29576 -0.06252 -0.03283 -0.09442 -0.02962  0.01201
  3   c           x  -0.02251  0.03692 -0.00565 -0.02211 -0.00956  0.00150
                  y  -0.02888  0.05551 -0.05552 -0.09095 -0.04111 -0.03327
                  z  -0.04504  0.23893 -0.05099 -0.06201 -0.04542  0.02284
  4   c           x   0.03739  0.00593  0.00953  0.00665  0.00762 -0.00872
                  y   0.36929  0.12753 -0.00534  0.06026 -0.00345  0.00361
                  z   0.01455  0.00584  0.07219  0.00702  0.05712 -0.06492
  5   c           x  -0.00983 -0.02622 -0.00688 -0.00710 -0.00200  0.00495
                  y  -0.03382  0.07935  0.06762 -0.08894  0.04728  0.03024
                  z   0.04596 -0.23312 -0.05042  0.04969 -0.04214  0.02523
  6   c           x  -0.03127  0.00943 -0.00232  0.01790 -0.01798  0.00349
                  y  -0.16536 -0.04892 -0.08732 -0.00958 -0.09093  0.00902
                  z  -0.31775  0.05751 -0.05100  0.08751 -0.03709  0.01232
  7   h           x  -0.11114 -0.10778  0.15517 -0.13825  0.01458  0.03717
                  y  -0.21554 -0.31372  0.47458 -0.34481  0.32427  0.11571
                  z   0.31873 -0.22598  0.20106 -0.33064  0.11704  0.09388
  8   h           x   0.06848  0.05424 -0.04302  0.01982 -0.00938 -0.00770
                  y  -0.02615 -0.26793 -0.28619 -0.39366 -0.27027 -0.40597
                  z  -0.04058  0.41456  0.06861  0.08207  0.06607  0.21722
  9   h           x  -0.01639  0.01933  0.06279 -0.00650  0.05634 -0.09578
                  y   0.38290  0.14586 -0.02584  0.05689 -0.02247  0.03781
                  z   0.02300  0.00389  0.46678  0.03594  0.42079 -0.71861
 10   h           x   0.07368 -0.06207  0.06273 -0.00018  0.03099  0.06848
                  y  -0.02912 -0.22631  0.30169 -0.34546  0.26992  0.37691
                  z   0.01845 -0.44067  0.08849 -0.11337  0.09232  0.24500
 11   h           x  -0.18741 -0.04631 -0.09819 -0.06124  0.01362 -0.01235
                  y  -0.18386 -0.33159 -0.46215 -0.43875 -0.33054 -0.12236
                  z  -0.29954  0.21026  0.15764  0.33821  0.07842  0.08616
 12   s           x   0.11898  0.00388  0.00470  0.00070 -0.03857 -0.00011
                  y  -0.06158  0.01164 -0.00111 -0.02474  0.01651  0.00005
                  z  -0.01745 -0.00013  0.04312  0.00067 -0.32036 -0.00084
 13   o           x  -0.13653 -0.00152 -0.03269 -0.00433  0.21645  0.00071
                  y   0.07177  0.00009  0.02057 -0.00124 -0.11521 -0.00104
                  z  -0.15317 -0.00329 -0.04248 -0.00144  0.28909  0.00171
 14   o           x  -0.09573 -0.00096  0.02236 -0.00182 -0.14064 -0.00025
                  y   0.05446 -0.00008 -0.01585 -0.00295  0.08328  0.00083
                  z   0.18748  0.00412 -0.05176 -0.00261  0.34157  0.00186

reduced mass(g/mol)     7.472    2.827    1.606    2.596    8.920    1.096


       mode              31       32       33       34       35       36

     frequency        1176.61  1315.46  1364.30  1468.87  1498.91  1635.36

     symmetry            a        a        a        a        a        a   

        IR               YES      YES      YES      YES      YES      YES
|dDIP/dQ|   (a.u.)     0.0009   0.0002   0.0003   0.0019   0.0015   0.0020
intensity (km/mol)       1.36     0.07     0.21     6.31     4.14     7.05
intensity (  %   )       0.63     0.03     0.10     2.93     1.92     3.27
 
       RAMAN             YES      YES      YES      YES      YES      YES
 
  1   c           x  -0.00317  0.01874 -0.04109 -0.02050 -0.01173  0.01789
                  y  -0.02813 -0.00773  0.01535  0.00865 -0.12392  0.15836
                  z  -0.00064  0.14060 -0.30705 -0.15370 -0.00559  0.01890
  2   c           x  -0.00475  0.00789  0.05168  0.00019  0.02601 -0.03761
                  y  -0.03964  0.05702  0.27726 -0.08986  0.09429 -0.28991
                  z  -0.03031 -0.00142  0.17512  0.05872  0.11543 -0.08886
  3   c           x  -0.00057 -0.00562  0.00016  0.01421 -0.00829  0.01427
                  y   0.04990  0.02108 -0.25837  0.14779  0.09028  0.30712
                  z  -0.02350 -0.04147  0.13942  0.01694 -0.10212 -0.07271
  4   c           x   0.00032 -0.00383 -0.04393 -0.01896 -0.00799 -0.01567
                  y   0.00041  0.00128  0.01714  0.00770 -0.09776 -0.15911
                  z  -0.00016 -0.02834 -0.32814 -0.14179 -0.00420 -0.02074
  5   c           x   0.00634 -0.00572  0.03991 -0.01141  0.01993  0.03953
                  y   0.04789 -0.01668  0.24316 -0.14925  0.07779  0.30327
                  z   0.02761 -0.04325  0.16035  0.00403  0.10930  0.11382
  6   c           x   0.00270 -0.00872 -0.00770  0.01644 -0.00377 -0.01816
                  y  -0.04335 -0.05598 -0.29394  0.08225  0.10716 -0.28907
                  z   0.02607 -0.00561  0.15231  0.06654 -0.10758  0.04999
  7   h           x  -0.10248 -0.11331 -0.06551  0.04184 -0.07975  0.06641
                  y  -0.39015 -0.43565 -0.23924  0.06559 -0.41303  0.20773
                  z  -0.25425 -0.32154 -0.17031  0.17650 -0.20617  0.25990
  8   h           x   0.01187 -0.00249 -0.00909  0.01490 -0.01077  0.01463
                  y   0.45461 -0.36412  0.13683 -0.32408 -0.43954 -0.29946
                  z  -0.23431  0.15207 -0.06073  0.27903  0.15808  0.24523
  9   h           x  -0.00265  0.02788  0.05527  0.08842 -0.00958 -0.01289
                  y   0.00093 -0.01110 -0.02175 -0.03422 -0.11933 -0.17809
                  z  -0.00150  0.20737  0.41474  0.66029 -0.00320  0.01011
 10   h           x   0.08020  0.04683 -0.00867  0.06398 -0.05750 -0.05531
                  y   0.43504  0.34407 -0.13221  0.29675 -0.41950 -0.29040
                  z   0.27201  0.18136 -0.07675  0.30637 -0.19212 -0.26682
 11   h           x  -0.03736  0.03088  0.02061  0.00527 -0.02881 -0.00337
                  y  -0.41766  0.47014  0.25456 -0.08097 -0.43661  0.21504
                  z   0.23095 -0.29449 -0.15487  0.17228  0.17893 -0.24542
 12   s           x   0.00317  0.00040  0.00106  0.00043  0.00230  0.00088
                  y   0.00250 -0.00024 -0.00023 -0.00012  0.00075 -0.00057
                  z   0.00000  0.00373  0.00757  0.00285 -0.00020 -0.00038
 13   o           x  -0.00245 -0.00459 -0.00394  0.00112 -0.00230 -0.00123
                  y  -0.00003  0.00550 -0.00639 -0.00404  0.00154  0.00018
                  z  -0.00319 -0.00847 -0.00304  0.00269 -0.00419  0.00037
 14   o           x  -0.00139  0.00237  0.00301 -0.00045 -0.00118 -0.00131
                  y  -0.00050 -0.00448  0.00653  0.00365  0.00113 -0.00031
                  z   0.00308 -0.00966 -0.00311  0.00319  0.00471 -0.00009

reduced mass(g/mol)     1.141    1.363    7.598    2.245    2.199    5.825


       mode              37       38       39       40       41       42

     frequency        1637.61  3146.26  3156.43  3176.44  3182.87  3185.72

     symmetry            a        a        a        a        a        a   

        IR               YES      YES      YES      YES      YES      YES
|dDIP/dQ|   (a.u.)     0.0006   0.0012   0.0047   0.0033   0.0038   0.0055
intensity (km/mol)       0.56     2.71    39.35    19.58    25.07    52.79
intensity (  %   )       0.26     1.26    18.24     9.08    11.62    24.47
 
       RAMAN             YES      YES      YES      YES      YES      YES
 
  1   c           x  -0.04445 -0.00007 -0.00007  0.00001  0.00023  0.00006
                  y   0.02423 -0.00069  0.00002  0.00087 -0.00009 -0.00083
                  z  -0.33700 -0.00002 -0.00051  0.00004  0.00175  0.00000
  2   c           x   0.03861  0.00130 -0.00171 -0.00362 -0.00530  0.00405
                  y   0.09321 -0.00632  0.00775  0.02021  0.03437 -0.02675
                  z   0.21078  0.01061 -0.01405 -0.03119 -0.04847  0.03684
  3   c           x  -0.02417 -0.00824  0.00980  0.00320 -0.00337  0.00532
                  y   0.09865 -0.02201  0.02602  0.00533 -0.01069  0.01439
                  z  -0.21670 -0.04251  0.05091  0.01847 -0.01613  0.02728
  4   c           x   0.05128  0.00372 -0.00041  0.00544  0.00018  0.00346
                  y  -0.02684  0.04285  0.00032  0.06359 -0.00124  0.03925
                  z   0.38645  0.00176 -0.00318  0.00260  0.00207  0.00165
  5   c           x  -0.03184  0.00290  0.00357 -0.00170 -0.00075 -0.00189
                  y  -0.05100 -0.02620 -0.03138  0.00732  0.01147  0.01781
                  z  -0.21569  0.04042  0.04892 -0.01809 -0.01393 -0.02687
  6   c           x   0.01542 -0.00160 -0.00215  0.00492 -0.00778 -0.00648
                  y  -0.13889 -0.00515 -0.00628  0.01667 -0.02806 -0.02412
                  z   0.20763 -0.01111 -0.01484  0.03269 -0.04969 -0.04160
  7   h           x  -0.03434 -0.01565  0.02021  0.04228  0.06596 -0.04938
                  y  -0.26417  0.08809 -0.11225 -0.24138 -0.38302  0.28933
                  z  -0.01597 -0.13223  0.16923  0.36007  0.56545 -0.42561
  8   h           x  -0.02535  0.09827 -0.11443 -0.03558  0.03607 -0.05773
                  y  -0.24711  0.26117 -0.30346 -0.09088  0.09729 -0.15198
                  z  -0.05931  0.50687 -0.58943 -0.18672  0.18374 -0.29574
  9   h           x  -0.06422 -0.04522  0.00051 -0.06254  0.00080 -0.03756
                  y   0.01761 -0.52409 -0.00204 -0.72256  0.01255 -0.43155
                  z  -0.47638 -0.02140  0.00468 -0.02946 -0.00166 -0.01764
 10   h           x   0.00743 -0.03457 -0.04049  0.01357  0.01111  0.02054
                  y   0.22961  0.31120  0.36542 -0.11077 -0.10676 -0.18821
                  z  -0.05968 -0.48213 -0.56656  0.18018  0.16114  0.29215
 11   h           x   0.03257  0.02065  0.02657 -0.05635  0.08665  0.07201
                  y   0.28438  0.07337  0.09457 -0.20060  0.31072  0.25827
                  z  -0.01747  0.13933  0.18059 -0.37828  0.57912  0.47932
 12   s           x   0.00094 -0.00004 -0.00000 -0.00007 -0.00003  0.00012
                  y  -0.00033  0.00003  0.00000  0.00016  0.00002 -0.00038
                  z   0.00643  0.00001 -0.00004  0.00002 -0.00024 -0.00004
 13   o           x  -0.00052  0.00006  0.00002  0.00009  0.00010 -0.00021
                  y  -0.00641 -0.00007  0.00007  0.00009  0.00030  0.00005
                  z  -0.00021  0.00004  0.00004  0.00013  0.00008 -0.00027
 14   o           x   0.00029  0.00004 -0.00001  0.00005 -0.00007 -0.00014
                  y   0.00625 -0.00006 -0.00008  0.00010 -0.00030  0.00001
                  z   0.00032 -0.00006  0.00004 -0.00014  0.00006  0.00033

reduced mass(g/mol)     6.440    1.083    1.088    1.092    1.092    1.096
 

         **************************************************************
         *                                                            *
         *  zero point VIBRATIONAL energy  :      0.0976259  Hartree  *
         *    SCF-energy                   :   -779.8998044           *
         *    SCF + E(vib0)                :   -779.8021785           *
         *                                                            *
         **************************************************************




 time elapsed for vibrational analysis     0.18 sec


    ------------------------------------------------------------------------
         total  cpu-time : 12 hours  0 minutes and  5 seconds
         total wall-time : 45 minutes and 46 seconds
    ------------------------------------------------------------------------

   ****  force : all done  ****


    2019-02-05 10:20:12.477 

aoforce ended normally 
