   This run of MOLCAS is using the pymolcas driver

                             OPE
                             OPE          NMOL  CASOP  ENMOLC A   SO
                 OPE        NMOLC        AS  OP EN  MO LC     AS  OP
                OPENM       OL CA        SO  PE NM  OL CA     SOP EN
                OP EN      MO   LC       AS  OP ENMOL  CASO   PENMOL
                OP  EN     MO   LC       AS  OP EN     MO     LC ASO
               OP   E  NMOL  C  AS       OP  EN MO     LC     AS  OP
               OP  E   NMO   LC AS        OPEN  MO     LCASOP EN   M
               O  PEN   MO  LCA  SO
            OPE   NMO   L   CAS    OP
        OPENMOL  CASOP     ENMOL   CASOPE
     OPENMOLCA   SOPENMOLCASOPEN   MOLCASOPE
    OPENMOLCAS   OP           EN   MOL    CAS
    OPENMOLCAS       OP  ENM        O     LCA
    OPENMOLCAS    OPEN  MOLCASO     P  E  NMO
    OPENMOLCAS     OP               E  N  MOL
    OPENMOLCA   SO           PENM   O  L  CAS    OPEN    MO    LCAS
    OPENMOLCA   SOP           ENM   O  L  CAS   OP  EN  MOLC  AS   O
    OPENMOLCA   SOPE           NM      O  LCA   S      OP  EN MO
    OPENMOLC                AS         O  PEN   M      OL  CA  SOPE
    OPENMO        LCASOPE  NMOL        C  ASO   P      ENMOLC     AS
    OPE     NMO      LCA  SO     P     E   NM   OL  CA SO  PE N   MO
          OPENMOLCA            SOPE   NMO        LCAS  O    P  ENMO
     OPENMOLCASOPENMOLCASOPENMOLCASOPENMOLCA
        OPENMOLCASOPENMOLCASOPENMOLCASOPE
            OPENMOLCASOPENMOLCASOPENM
               OPENMOLCASOPENMOLCA        version: 18.09
                   OPENMOLCASO
                       OPE                tag: 50-g6d6e5e5-dirty

 OpenMolcas is free software; you can redistribute it and/or modify it
 under the terms of the GNU Lesser General Public License version 2.1.
 OpenMolcas is distributed in the hope that it will be useful, but it
 is provided "as is" and without any express or implied warranties.
 For more details see the full text of the license in the file
 LICENSE or in <http://www.gnu.org/licenses/>.

                 Copyright (C) The OpenMolcas Authors
           For the author list and the recommended citation,
                   consult the file CONTRIBUTORS.md

           *************************************************
           * pymolcas version py2.04                       *
           *   build 3b3f1139d1f9af0cd96dc01c0ce9d5c0      *
           *   (after the EMIL interpreter by V. Veryazov) *
           *************************************************

configuration info
------------------
C Compiler ID: Intel
C flags: -std=gnu99 -qopenmp
Fortran Compiler ID: Intel
Fortran flags: -fpp -i8 -r8 -heap-arrays -qopenmp
Definitions: _MOLCAS_;_I8_;_LINUX_;_MKL_;_FDE_
Parallel: OFF (GA=OFF)


   ------------------------------------------------------------------------------------------------------------------------
  |
  |           Project: NpO2_C6H5SO2_C6H5SO2-m1-triplet.casscf.MB
  |    Submitted from: /home/vallet/John-methylsulfonyl/NpO2_C6H5SO2_C6H5SO2-m1/geom-triplet/optg-freq-pbe0/gaussian/SO-XMS
  |      Scratch area: /state/partition2/vallet/499300.phlam-s-sakura/NpO2_C6H5SO2_C6H5SO2-m1-triplet.casscf.MB
  |   Save outputs to: /home/vallet/John-methylsulfonyl/NpO2_C6H5SO2_C6H5SO2-m1/geom-triplet/optg-freq-pbe0/gaussian/SO-XMS
  |            Molcas: /home/pcmt/OpenMolcas/OpenMolcas-20181005
  |
  | Scratch area is empty
  |
  |    MOLCAS_DRIVER = /home/pcmt/OpenMolcas/OpenMolcas-20181005/sbin/pymolcas
  |   MOLCAS_LICENSE = /home/pcmt/molcas/license
  |    MOLCAS_MOLDEN = ON
  |    MOLCAS_NPROCS = 1
  |    MOLCAS_SOURCE = /home/pcmt/OpenMolcas/OpenMolcas-20181005
  | MOLCAS_STRUCTURE = 0
  |
   ------------------------------------------------------------------------------------------------------------------------

++ ---------   Input file   ---------

&GATEWAY
   COORD=$HomeDir/NpO2_C6H5SO2_C6H5SO2-m1-triplet.pbe0-zaxis.xyz
   BASIS=ANO-RCC-MB
   Group=Nosym
   ANGM=0.0 0.0 0.0
   RICD

>>> COPY $Project.RunFile $HomeDir

&SEWARD

&RASSCF
   Spin=3
   Symmetry=1
   Nactel=2 0 0
   Inactive=127
   Ras2=4
   CIRoots=6 6 1

>>> COPY $Project.RasOrb $HomeDir/$Project.RasOrb_triplets

>>> COPY $Project.rasscf.molden $HomeDir/$Project.rasscf_triplets.molden

&RASSCF
   Spin=1
   Symmetry=1
   Nactel=2 0 0
   Inactive=127
   Ras2=4
   CIRoots=10 10 1

>>> COPY $Project.RasOrb $HomeDir/$Project.RasOrb_singlets

>>> COPY $Project.rasscf.molden $HomeDir/$Project.rasscf_singlets.molden

-- ----------------------------------

--- Start Module: gateway at Mon Nov 19 14:58:10 2018 ---
 
()()()()()()()()()()()()()()()()()()()()()()()()()()()()()()()()()()()()()()()()()()()()()()()()()()

                                              &GATEWAY

                                   only a single process is used
                       available to each process: 16 GB of memory, 8 threads
()()()()()()()()()()()()()()()()()()()()()()()()()()()()()()()()()()()()()()()()()()()()()()()()()()
 
 
++    Symmetry information:
      ---------------------
 
                    Character Table for C1 
 
                             E  
                    a        1  x, y, xy, Rz, z, xz, Ry, yz, Rx, I
--
 
 
++    Basis set information:
      ----------------------
 
 
      Basis set label: C.ANO-RCC...2S1P.
 
      Electronic valence basis set:
      ------------------
      Associated Effective Charge   6.000000 au
      Associated Actual Charge      6.000000 au
      Nuclear Model: Point charge
 
      Shell  nPrim  nBasis  Cartesian Spherical Contaminant
         s      14       2        X                  
         p       9       1        X                  
 
 
      Basis set label: S.ANO-RCC...3S2P.
 
      Electronic valence basis set:
      ------------------
      Associated Effective Charge  16.000000 au
      Associated Actual Charge     16.000000 au
      Nuclear Model: Point charge
 
      Shell  nPrim  nBasis  Cartesian Spherical Contaminant
         s      17       3        X                  
         p      12       2        X                  
 
 
      Basis set label: O.ANO-RCC...2S1P.
 
      Electronic valence basis set:
      ------------------
      Associated Effective Charge   8.000000 au
      Associated Actual Charge      8.000000 au
      Nuclear Model: Point charge
 
      Shell  nPrim  nBasis  Cartesian Spherical Contaminant
         s      14       2        X                  
         p       9       1        X                  
 
 
      Basis set label: NP.ANO-RCC...7S6P4D2F.
 
      Electronic valence basis set:
      ------------------
      Associated Effective Charge  93.000000 au
      Associated Actual Charge     93.000000 au
      Nuclear Model: Point charge
 
      Shell  nPrim  nBasis  Cartesian Spherical Contaminant
         s      26       7        X                  
         p      23       6        X                  
         d      17       4                 X         
         f      13       2                 X         
 
 
      Basis set label: O.ANO-RCC...2S1P.
 
      Electronic valence basis set:
      ------------------
      Associated Effective Charge   8.000000 au
      Associated Actual Charge      8.000000 au
      Nuclear Model: Point charge
 
      Shell  nPrim  nBasis  Cartesian Spherical Contaminant
         s      14       2        X                  
         p       9       1        X                  
 
 
      Basis set label: S.ANO-RCC...3S2P.
 
      Electronic valence basis set:
      ------------------
      Associated Effective Charge  16.000000 au
      Associated Actual Charge     16.000000 au
      Nuclear Model: Point charge
 
      Shell  nPrim  nBasis  Cartesian Spherical Contaminant
         s      17       3        X                  
         p      12       2        X                  
 
 
      Basis set label: C.ANO-RCC...2S1P.
 
      Electronic valence basis set:
      ------------------
      Associated Effective Charge   6.000000 au
      Associated Actual Charge      6.000000 au
      Nuclear Model: Point charge
 
      Shell  nPrim  nBasis  Cartesian Spherical Contaminant
         s      14       2        X                  
         p       9       1        X                  
 
 
      Basis set label: O.ANO-RCC...2S1P.
 
      Electronic valence basis set:
      ------------------
      Associated Effective Charge   8.000000 au
      Associated Actual Charge      8.000000 au
      Nuclear Model: Point charge
 
      Shell  nPrim  nBasis  Cartesian Spherical Contaminant
         s      14       2        X                  
         p       9       1        X                  
 
 
      Basis set label: C.ANO-RCC...2S1P.
 
      Electronic valence basis set:
      ------------------
      Associated Effective Charge   6.000000 au
      Associated Actual Charge      6.000000 au
      Nuclear Model: Point charge
 
      Shell  nPrim  nBasis  Cartesian Spherical Contaminant
         s      14       2        X                  
         p       9       1        X                  
 
 
      Basis set label: H.ANO-RCC...1S.
 
      Electronic valence basis set:
      ------------------
      Associated Effective Charge   1.000000 au
      Associated Actual Charge      1.000000 au
      Nuclear Model: Point charge
 
      Shell  nPrim  nBasis  Cartesian Spherical Contaminant
         s       8       1        X                  
 
 
      Basis set label: C.ANO-RCC...2S1P.
 
      Electronic valence basis set:
      ------------------
      Associated Effective Charge   6.000000 au
      Associated Actual Charge      6.000000 au
      Nuclear Model: Point charge
 
      Shell  nPrim  nBasis  Cartesian Spherical Contaminant
         s      14       2        X                  
         p       9       1        X                  
 
 
      Basis set label: H.ANO-RCC...1S.
 
      Electronic valence basis set:
      ------------------
      Associated Effective Charge   1.000000 au
      Associated Actual Charge      1.000000 au
      Nuclear Model: Point charge
 
      Shell  nPrim  nBasis  Cartesian Spherical Contaminant
         s       8       1        X                  
--
 
 
++    Molecular structure info:
      -------------------------
 
                    ************************************************ 
                    **** Cartesian Coordinates / Bohr, Angstrom **** 
                    ************************************************ 
 
     Center  Label                x              y              z                     x              y              z
        1      C1               3.311103       6.659981       2.896138              1.752160       3.524310       1.532570
        2      S2               2.623469       5.278629      -0.170793              1.388280       2.793330      -0.090380
        3      O3               3.920464       2.698982      -0.000435              2.074620       1.428240      -0.000230
        4      NP4              0.000000       0.000000       0.000000              0.000000       0.000000       0.000000
        5      O5              -3.919424      -2.700589       0.000378             -2.074070      -1.429090       0.000200
        6      S6              -2.621712      -5.279895       0.170189             -1.387350      -2.794000       0.090060
        7      C7              -3.308268      -6.660755      -2.897196             -1.750660      -3.524720      -1.533130
        8      O8              -0.215845       4.754664       0.000813             -0.114220       2.516060       0.000430
        9      O9               0.217470      -4.754967      -0.001228              0.115080      -2.516220      -0.000650
       10      O10             -0.000246       0.000113      -3.347083             -0.000130       0.000060      -1.771200
       11      O11              0.000000       0.000000       3.347045              0.000000       0.000000       1.771180
       12      C12             -4.469864      -9.003279      -2.960388             -2.365350      -4.764330      -1.566570
       13      C13             -5.025122     -10.121562      -5.271939             -2.659180      -5.356100      -2.789790
       14      C14             -4.409468      -8.878878      -7.494219             -2.333390      -4.698500      -3.965770
       15      C15             -3.241542      -6.523637      -7.410107             -1.715350      -3.452160      -3.921260
       16      C16             -2.683165      -5.398683      -5.113259             -1.419870      -2.856860      -2.705820
       17      H17             -4.937401      -9.947386      -1.200335             -2.612760      -5.263930      -0.635190
       18      H18             -5.935063     -11.956392      -5.334905             -3.140700      -6.327050      -2.823110
       19      H19             -4.838549      -9.743258      -9.301893             -2.560450      -5.155910      -4.922350
       20      H20             -2.763441      -5.558611      -9.153191             -1.462350      -2.941490      -4.843660
       21      H21             -1.773168      -3.563022      -5.007925             -0.938320      -1.885470      -2.650080
       22      C22              4.474456       9.001673       2.958083              2.367780       4.763480       1.565350
       23      C23              5.031358      10.120466       5.268953              2.662480       5.355520       2.788210
       24      C24              4.415610       8.879124       7.491952              2.336640       4.698630       3.964570
       25      C25              3.245794       6.524790       7.409125              1.717600       3.452770       3.920740
       26      C26              2.685717       5.399288       5.112919              1.421220       2.857180       2.705640
       27      H27              4.942068       9.944722       1.197482              2.615230       5.262520       0.633680
       28      H28              5.942641      11.954691       5.330842              3.144710       6.326150       2.820960
       29      H29              4.846089       9.743806       9.299153              2.564440       5.156200       4.920900
       30      H30              2.767636       5.560765       9.152756              1.464570       2.942630       4.843430
       31      H31              1.774226       3.564288       5.009135              0.938880       1.886140       2.650720
 
                    ************************************************* 
                    **** InterNuclear Distances / Bohr, Angstrom **** 
                    ************************************************* 
 
     Atom centers         Bohr        Angstrom
   20 H20      15 C15     2.048950        1.084258
   30 H30      25 C25   
   18 H18      13 C13     2.049038        1.084304
   28 H28      23 C23   
   19 H19      14 C14     2.049134        1.084355
   29 H29      24 C24   
   17 H17      12 C12     2.051272        1.085486
   27 H27      22 C22   
   21 H21      16 C16     2.051538        1.085627
   31 H31      26 C26   
   12 C12       7 C7      2.615476        1.384050
   22 C22       1 C1    
   16 C16      15 C15     2.617789        1.385274
   26 C26      25 C25     2.617824        1.385293
   14 C14      13 C13     2.619503        1.386181
   24 C24      23 C23   
   16 C16       7 C7      2.625741        1.389482
   26 C26       1 C1    
   23 C23      22 C22     2.627158        1.390232
   13 C13      12 C12     2.627192        1.390250
   15 C15      14 C14     2.630251        1.391869
   25 C25      24 C24   
    6 S6        5 O5      2.892350        1.530566
    8 O8        2 S2    
    3 O3        2 S2      2.892368        1.530575
    9 O9        6 S6    
   11 O11       4 NP4     3.347045        1.771180
   10 O10       4 NP4     3.347083        1.771200
    2 S2        1 C1      3.433218        1.816781
    7 C7        6 S6    
   27 H27       1 C1      4.041659        2.138754
   17 H17       7 C7      4.041701        2.138776
   20 H20      16 C16     4.043893        2.139936
   30 H30      26 C26   
   21 H21       7 C7      4.050638        2.143505
   31 H31       1 C1      4.050933        2.143662
   19 H19      13 C13     4.051969        2.144210
   29 H29      23 C23     4.052001        2.144226
   18 H18      14 C14     4.057236        2.146997
   28 H28      24 C24     4.057257        2.147008
   30 H30      24 C24     4.060246        2.148590
   20 H20      14 C14     4.060267        2.148601
   19 H19      15 C15     4.061431        2.149217
   29 H29      25 C25   
   28 H28      22 C22     4.062742        2.149910
   18 H18      12 C12     4.062759        2.149920
   27 H27      23 C23     4.076241        2.157054
   17 H17      13 C13     4.076272        2.157070
   31 H31      25 C25     4.085344        2.161871
   21 H21      15 C15     4.085565        2.161988
   21 H21      10 O10     4.312492        2.282072
   31 H31      11 O11     4.314461        2.283114
   15 C15       7 C7      4.515484        2.389491
   25 C25       1 C1    
   13 C13       7 C7      4.534774        2.399699
   23 C23       1 C1      4.534809        2.399718
   24 C24      22 C22     4.535906        2.400298
   14 C14      12 C12     4.535939        2.400316
   25 C25      23 C23     4.549446        2.407463
   15 C15      13 C13     4.549504        2.407494
   16 C16      14 C14     4.556408        2.411147
   26 C26      24 C24     4.556489        2.411190
   26 C26      22 C22     4.562903        2.414584
   16 C16      12 C12     4.562922        2.414594
    9 O9        5 O5      4.618914        2.444224
    8 O8        3 O3      4.618969        2.444253
   19 H19      18 H18     4.673040        2.472866
   29 H29      28 H28     4.673108        2.472902
   30 H30      29 H29     4.673246        2.472975
   20 H20      19 H19     4.673271        2.472988
   28 H28      27 H27     4.703806        2.489147
   18 H18      17 H17     4.703839        2.489164
   31 H31      30 H30     4.705569        2.490080
   21 H21      20 H20     4.705979        2.490297
    8 O8        4 NP4     4.759561        2.518651
    4 NP4       3 O3      4.759679        2.518713
    5 O5        4 NP4     4.759734        2.518743
    9 O9        4 NP4     4.759937        2.518850
    9 O9        7 C7      4.944642        2.616592
    3 O3        1 C1      4.944791        2.616671
    7 C7        5 O5      4.944933        2.616746
    8 O8        1 C1      4.944946        2.616753
   22 C22       2 S2      5.203564        2.753607
   12 C12       6 S6      5.203822        2.753744
   14 C14       7 C7      5.221622        2.763163
   24 C24       1 C1      5.221689        2.763199
   25 C25      22 C22     5.239879        2.772825
   15 C15      12 C12     5.239981        2.772878
   16 C16      13 C13     5.274043        2.790903
   26 C26      23 C23     5.274079        2.790922
   16 C16       6 S6      5.285140        2.796776
   26 C26       2 S2      5.285456        2.796943
   27 H27       2 S2      5.387068        2.850714
   17 H17       6 S6      5.387599        2.850995
   21 H21       5 O5      5.516639        2.919280
   21 H21       9 O9      5.518187        2.920099
   31 H31       3 O3      5.518231        2.920122
   31 H31       8 O8      5.519118        2.920592
   21 H21       6 S6      5.520919        2.921544
   31 H31       2 S2      5.521941        2.922085
--
 
 
            Nuclear Potential Energy           4002.08888867 au
 
--- Stop Module: gateway at Mon Nov 19 14:59:35 2018 /rc=_RC_ALL_IS_WELL_ ---
*** files: NpO2_C6H5SO2_C6H5SO2-m1-triplet.casscf.MB.RICDLib xmldump
    saved to directory /home/vallet/John-methylsulfonyl/NpO2_C6H5SO2_C6H5SO2-m1/geom-triplet/optg-freq-pbe0/gaussian/SO-XMS
--- Module gateway spent 1 minute 24 seconds ---

>>> COPY NpO2_C6H5SO2_C6H5SO2-m1-triplet.casscf.MB.RunFile /home/vallet/John-methylsulfonyl/NpO2_C6H5SO2_C6H5SO2-m1/geom-triplet/optg-freq-pbe0/gaussian/SO-XMS

--- Start Module: seward at Mon Nov 19 14:59:35 2018 ---
 
()()()()()()()()()()()()()()()()()()()()()()()()()()()()()()()()()()()()()()()()()()()()()()()()()()

                                              &SEWARD

                                   only a single process is used
                       available to each process: 16 GB of memory, 8 threads
()()()()()()()()()()()()()()()()()()()()()()()()()()()()()()()()()()()()()()()()()()()()()()()()()()
 
               SEWARD will generate:
                  Multipole Moment integrals up to order  2
                  Kinetic Energy integrals
                  Nuclear Attraction integrals (point charge)
                  One-Electron Hamiltonian integrals
                  Velocity integrals
                  Relativistic Douglas-Kroll-Hess integrals:
                    - Parametrization         : EXP
                    - DKH order of Hamiltonian: 2
                    - DKH order of Properties : 0
                         - multipole moment operators
                         - electric potential operators
                         - contact operators
                  Orbital angular momentum around ( 0.0000  0.0000  0.0000 )
                  Atomic mean-field integrals
                  RI decomposed two-electron repulsion integrals stored Cholesky style
                   - acCD auxiliary basis
                   - CD Threshold:   0.10E-03
 
                   Integrals are discarded if absolute value <: 0.10E-13
                   Integral cutoff threshold is set to       <: 0.10E-15
 
            Nuclear Potential Energy           4002.08888867 au
 
 
      Basis set specifications :
      Symmetry species         a  
      Basis functions          177
 
 
  Input file to MOLDEN was generated!
 
--- Stop Module: seward at Mon Nov 19 15:00:27 2018 /rc=_RC_ALL_IS_WELL_ ---
*** files: NpO2_C6H5SO2_C6H5SO2-m1-triplet.casscf.MB.GssOrb NpO2_C6H5SO2_C6H5SO2-m1-triplet.casscf.MB.guessorb.h5 NpO2_C6H5SO2_C6H5SO2-m1-triplet.casscf.MB.guessorb.molden xmldump
    saved to directory /home/vallet/John-methylsulfonyl/NpO2_C6H5SO2_C6H5SO2-m1/geom-triplet/optg-freq-pbe0/gaussian/SO-XMS
--- Module seward spent 51 seconds ---

*** symbolic link created: INPORB -> NpO2_C6H5SO2_C6H5SO2-m1-triplet.casscf.MB.GssOrb
--- Start Module: rasscf at Mon Nov 19 15:00:27 2018 ---
 
()()()()()()()()()()()()()()()()()()()()()()()()()()()()()()()()()()()()()()()()()()()()()()()()()()

                                              &RASSCF

                                   only a single process is used
                       available to each process: 16 GB of memory, 8 threads
()()()()()()()()()()()()()()()()()()()()()()()()()()()()()()()()()()()()()()()()()()()()()()()()()()
 
 
      Header of the ONEINT file:
      --------------------------
      
      Integrals generated by seward 4.2.0  , Mon Nov 19 14:59:37 2018
 
 
      OrdInt status: non-squared
 
 
      Cartesian coordinates in Angstrom:
      -----------------------------------------------------
      No.  Label        X            Y            Z        
      -----------------------------------------------------
       1   C1         1.75216000   3.52431000   1.53257000
       2   S2         1.38828000   2.79333000  -0.09038000
       3   O3         2.07462000   1.42824000  -0.00023000
       4   NP4        0.00000000   0.00000000   0.00000000
       5   O5        -2.07407000  -1.42909000   0.00020000
       6   S6        -1.38735000  -2.79400000   0.09006000
       7   C7        -1.75066000  -3.52472000  -1.53313000
       8   O8        -0.11422000   2.51606000   0.00043000
       9   O9         0.11508000  -2.51622000  -0.00065000
      10   O10       -0.00013000   0.00006000  -1.77120000
      11   O11        0.00000000   0.00000000   1.77118000
      12   C12       -2.36535000  -4.76433000  -1.56657000
      13   C13       -2.65918000  -5.35610000  -2.78979000
      14   C14       -2.33339000  -4.69850000  -3.96577000
      15   C15       -1.71535000  -3.45216000  -3.92126000
      16   C16       -1.41987000  -2.85686000  -2.70582000
      17   H17       -2.61276000  -5.26393000  -0.63519000
      18   H18       -3.14070000  -6.32705000  -2.82311000
      19   H19       -2.56045000  -5.15591000  -4.92235000
      20   H20       -1.46235000  -2.94149000  -4.84366000
      21   H21       -0.93832000  -1.88547000  -2.65008000
      22   C22        2.36778000   4.76348000   1.56535000
      23   C23        2.66248000   5.35552000   2.78821000
      24   C24        2.33664000   4.69863000   3.96457000
      25   C25        1.71760000   3.45277000   3.92074000
      26   C26        1.42122000   2.85718000   2.70564000
      27   H27        2.61523000   5.26252000   0.63368000
      28   H28        3.14471000   6.32615000   2.82096000
      29   H29        2.56444000   5.15620000   4.92090000
      30   H30        1.46457000   2.94263000   4.84343000
      31   H31        0.93888000   1.88614000   2.65072000
      -----------------------------------------------------
      Nuclear repulsion energy = 4002.08888867
 
++    Wave function specifications:
      -----------------------------
 
      Number of closed shell electrons         254
      Number of electrons in active shells       2
      Max number of holes in RAS1 space          0
      Max nr of electrons in RAS3 space          0
      Number of inactive orbitals              127
      Number of active orbitals                  4
      Number of secondary orbitals              46
      Spin quantum number                      1.0
      State symmetry                             1
--
 
++    Orbital specifications:
      -----------------------
 
      Symmetry species                           1
                                                 a
      Frozen orbitals                            0
      Inactive orbitals                        127
      Active orbitals                            4
      RAS1 orbitals                              0
      RAS2 orbitals                              4
      RAS3 orbitals                              0
      Secondary orbitals                        46
      Deleted orbitals                           0
      Number of basis functions                177
--
 
++    CI expansion specifications:
      ----------------------------
 
      Number of CSFs                             6
      Number of determinants                     6
      Number of root(s) required                 6
      Root chosen for geometry opt.              6
      CI roots used                              1     2     3     4     5     6
      weights                                0.167 0.167 0.167 0.167 0.167 0.167
      highest root included in the CI            6
      max. size of the explicit Hamiltonian      6
--
 
++    Optimization specifications:
      ----------------------------
 
      RASSCF algorithm: LK RI/DF
      Maximum number of macro iterations       200
      Maximum number of SX iterations          100
      Threshold for RASSCF energy            0.100E-07
      Threshold for max MO rotation          0.100E+00
      Threshold for max BLB element          0.100E-03
      Level shift parameter                  0.500E+00
      Make Quasi-Newton update
--
 
      Orbitals from runfile: guessorb orbitals
      The MO-coefficients are taken from guessorb on runfile
 
      Total molecular charge   -1.00
 
      ************************************************************************************************************************
      *                                                                                                                      *
      *                                            Wave function control section                                             *
      *                                                                                                                      *
      ************************************************************************************************************************
 
 
                                         RASSCF iterations: Energy and convergence statistics
                                         ----------------------------------------------------
 
      Iter CI   SX   CI       RASSCF       Energy    max ROT     max BLB   max BLB  Level Ln srch  Step   QN   Walltime
          iter iter root      energy       change     param      element    value   shift minimum  type update hh:mm:ss
 Nr of preliminary CI iterations:   1
      Total energies have been shifted. Add               -30000.00 au
        1   1   11    0  -436.04580408    0.00E+00  -0.32E+00* 124 128 1  0.11E+01*  2.77   0.00    SX    NO    0:00:13
        2   1   11    0  -438.09554090   -0.20E+01*  0.33E+00* 124 128 1  0.59E+00*  2.29   0.00    SX    NO    0:00:04
        3   1   11    0  -439.33678853   -0.12E+01*  0.21E+00* 131 133 1  0.29E+00*  1.89   0.00    SX    NO    0:00:04
        4   1   10    0  -440.04139502   -0.70E+00*  0.12E+00* 121 131 1 -0.24E+00*  1.63   0.00    SX    NO    0:00:04
        5   1   10    0  -440.50924395   -0.47E+00*  0.17E+00* 121 131 1 -0.27E+00*  1.43   2.50    QN   YES    0:00:04
        6   1   10    0  -440.95174135   -0.44E+00*  0.16E+00* 126 131 1 -0.31E+00*  1.18   2.16    QN   YES    0:00:04
        7   1    9    0  -441.23365577   -0.28E+00*  0.17E+00* 126 131 1 -0.29E+00*  1.01   2.06    QN   YES    0:00:04
        8   1    9    0  -441.42760072   -0.19E+00*  0.20E+00* 126 131 1 -0.27E+00*  0.93   2.50    QN   YES    0:00:05
        9   1    8    0  -441.60446170   -0.18E+00*  0.22E+00* 126 131 1 -0.23E+00*  0.89   2.50    QN   YES    0:00:04
       10   1    8    0  -441.75682467   -0.15E+00*  0.20E+00* 126 131 1 -0.16E+00*  0.89   2.15    QN   YES    0:00:05
       11   1    8    0  -441.86204006   -0.11E+00*  0.14E+00* 121 131 1  0.15E+00*  0.90   1.86    QN   YES    0:00:05
       12   1    8    0  -441.93498831   -0.73E-01*  0.13E+00* 121 131 1  0.16E+00*  0.91   2.09    QN   YES    0:00:04
       13   1    9    0  -442.00176012   -0.67E-01*  0.20E+00* 121 131 1  0.13E+00*  0.90   2.48    QN   YES    0:00:05
       14   1    9    0  -442.06657892   -0.65E-01*  0.26E+00* 121 131 1  0.87E-01*  0.85   2.40    QN   YES    0:00:04
       15   1    9    0  -442.12409000   -0.58E-01*  0.23E+00* 126 131 1  0.77E-01*  0.77   1.85    QN   YES    0:00:05
       16   1   10    0  -442.16326649   -0.39E-01*  0.15E+00* 126 131 1  0.66E-01*  0.72   1.67    QN   YES    0:00:05
       17   1   10    0  -442.19194420   -0.29E-01* -0.11E+00* 121 131 1 -0.43E-01*  0.70   1.93    QN   YES    0:00:05
       18   1    9    0  -442.21659260   -0.25E-01* -0.61E-01  121 131 1 -0.54E-01*  0.68   1.96    QN   YES    0:00:05
       19   1    9    0  -442.23427776   -0.18E-01*  0.45E-01  121 131 1 -0.43E-01*  0.66   1.77    QN   YES    0:00:05
       20   1    9    0  -442.24418047   -0.99E-02*  0.41E-01  121 131 1 -0.22E-01*  0.65   1.75    QN   YES    0:00:05
       21   1    9    0  -442.25059292   -0.64E-02* -0.59E-01  127 130 1  0.21E-01*  0.64   2.02    QN   YES    0:00:05
       22   1    9    0  -442.25813034   -0.75E-02* -0.12E+00* 127 130 1  0.40E-01*  0.63   2.50    QN   YES    0:00:05
       23   1    9    0  -442.27353538   -0.15E-01* -0.17E+00* 127 130 1  0.81E-01*  0.59   1.65    QN   YES    0:00:04
       24   1    9    0  -442.28707078   -0.14E-01* -0.80E-01  127 130 1  0.11E+00*  0.50   0.93    QN   YES    0:00:05
       25   1    9    0  -442.30908586   -0.22E-01* -0.27E+00* 127 130 1  0.12E+00*  0.49   2.50    QN   YES    0:00:04
       26   1    9    0  -442.38799919   -0.79E-01* -0.19E+00* 127 130 1  0.13E+00*  0.47   1.55    QN   YES    0:00:05
       27   1    9    0  -442.45617157   -0.68E-01* -0.75E-01  127 130 1  0.13E+00*  0.52   1.40    QN   YES    0:00:04
       28   1    9    0  -442.51281686   -0.57E-01* -0.16E+00* 127 130 1  0.12E+00*  0.53   2.50    QN   YES    0:00:04
       29   1    9    0  -442.60058742   -0.88E-01* -0.12E+00* 127 136 1  0.84E-01*  0.55   1.76    QN   YES    0:00:05
       30   1    9    0  -442.68196885   -0.81E-01*  0.10E+00  127 130 1  0.70E-01*  0.55   1.69    QN   YES    0:00:04
       31   1    8    0  -442.73451656   -0.53E-01*  0.93E-01  121 175 1 -0.49E-01*  0.55   1.73    QN   YES    0:00:04
       32   1    8    0  -442.76137968   -0.27E-01*  0.43E-01  121 175 1 -0.26E-01*  0.50   1.35    QN   YES    0:00:05
       33   1    8    0  -442.77019573   -0.88E-02*  0.27E-01  126 133 1  0.13E-01*  0.49   1.30    QN   YES    0:00:05
       34   1    8    0  -442.77324115   -0.30E-02*  0.34E-01  126 133 1  0.72E-02*  0.48   1.64    QN   YES    0:00:05
       35   1    8    0  -442.77492079   -0.17E-02*  0.44E-01  121 133 1 -0.62E-02*  0.49   1.70    QN   YES    0:00:05
       36   1    8    0  -442.77605917   -0.11E-02*  0.63E-01  121 175 1  0.59E-02*  0.49   2.06    QN   YES    0:00:06
       37   1    8    0  -442.77713061   -0.11E-02*  0.62E-01  127 132 1 -0.50E-02*  0.49   1.89    QN   YES    0:00:05
       38   1    8    0  -442.77786087   -0.73E-03* -0.45E-01  127 132 1 -0.42E-02*  0.49   1.72    QN   YES    0:00:05
       39   1    7    0  -442.77823935   -0.38E-03*  0.24E-01  126 133 1 -0.29E-02*  0.49   1.60    QN   YES    0:00:05
       40   1    7    0  -442.77841343   -0.17E-03*  0.13E-01  121 134 1 -0.24E-02*  0.49   1.61    QN   YES    0:00:05
       41   1    7    0  -442.77850417   -0.91E-04* -0.84E-02  121 133 1  0.20E-02*  0.49   1.65    QN   YES    0:00:05
       42   1    7    0  -442.77855747   -0.53E-04* -0.62E-02  121 133 1  0.17E-02*  0.49   1.61    QN   YES    0:00:05
       43   1    7    0  -442.77858724   -0.30E-04*  0.54E-02  121 133 1  0.98E-03*  0.49   1.59    QN   YES    0:00:05
       44   1    6    0  -442.77860393   -0.17E-04*  0.45E-02  126 131 1  0.84E-03*  0.49   1.76    QN   YES    0:00:05
       45   1    6    0  -442.77861424   -0.10E-04*  0.38E-02  121 134 1  0.52E-03*  0.49   1.64    QN   YES    0:00:05
       46   1    6    0  -442.77862007   -0.58E-05*  0.28E-02  127 132 1 -0.47E-03*  0.49   1.75    LS   YES    0:00:06
       47   1    6    0  -442.77862083   -0.76E-06*  0.78E-03  127 132 1 -0.48E-03*  0.49   0.74    QN   YES    0:00:06
       48   1    6    0  -442.77862294   -0.21E-05*  0.85E-03  121 133 1 -0.32E-03*  0.49   2.09    LS   YES    0:00:05
       49   1    6    0  -442.77862366   -0.71E-06*  0.13E-02  126 134 1 -0.23E-03*  0.49   0.96    QN   YES    0:00:06
       50   1    6    0  -442.77862428   -0.62E-06*  0.20E-02  126 133 1  0.20E-03*  0.49   2.50    LS   YES    0:00:05
       51   1    6    0  -442.77862430   -0.24E-07*  0.56E-03  126 133 1  0.28E-03*  0.49   0.52    QN   YES    0:00:05
       52   1    5    0  -442.77862476   -0.46E-06* -0.16E-03  126 133 1  0.18E-03*  0.49   1.21    QN   YES    0:00:05
       53   1    5    0  -442.77862483   -0.67E-07* -0.25E-03  126 133 1  0.99E-04   0.49   2.50    LS   YES    0:00:05
       54   1    6    0  -442.77862478    0.51E-07* -0.13E-03  121 175 1  0.81E-04   0.49   0.26    LS   YES    0:00:05
       55   1    5    0  -442.77862482   -0.48E-07*  0.29E-03  121 133 1 -0.60E-04   0.49   1.00    QN   YES    0:00:06
       56   1    5    0  -442.77862487   -0.46E-07*  0.43E-03  121 133 1 -0.38E-04   0.49   2.50    LS   YES    0:00:06
       57   1    5    0  -442.77862489   -0.16E-07*  0.85E-04  126 134 1  0.46E-04   0.49   0.75    QN   YES    0:00:06
       58   1    5    0  -442.77862490   -0.10E-07*  0.13E-03  126 134 1  0.27E-04   0.49   2.50    LS   YES    0:00:06
       59   1    5    0  -442.77862489    0.15E-08  -0.10E-03  103 136 1  0.14E-04   0.49   0.31    QN   YES    0:00:06
      Convergence after 59 iterations
       60   1    5    0  -442.77862490   -0.63E-08  -0.10E-03  103 136 1  0.11E-04   0.49   0.31    QN   YES    0:00:05
 
      ************************************************************************************************************************
                                                      Wave function printout:
                       occupation of active orbitals, and spin coupling of open shells (u,d: Spin up or down)
      ************************************************************************************************************************
 
      Note: transformation to natural orbitals
      has been made, which may change the order of the CSFs.
 
      printout of CI-coefficients larger than  0.05 for root  1
      energy=  -30442.806627
      conf/sym  1111     Coeff  Weight
             1  uu00   0.28581 0.08169
             2  u0u0  -0.40860 0.16696
             3  u00u  -0.57762 0.33365
             4  0uu0   0.51106 0.26118
             5  0u0u  -0.22163 0.04912
             6  00uu  -0.32773 0.10741
 
      printout of CI-coefficients larger than  0.05 for root  2
      energy=  -30442.806252
      conf/sym  1111     Coeff  Weight
             1  uu00   0.22838 0.05216
             2  u0u0   0.65080 0.42354
             3  u00u  -0.28572 0.08164
             4  0uu0   0.13279 0.01763
             5  0u0u   0.58149 0.33813
             6  00uu  -0.29480 0.08691
 
      printout of CI-coefficients larger than  0.05 for root  3
      energy=  -30442.798980
      conf/sym  1111     Coeff  Weight
             1  uu00   0.41592 0.17299
             3  u00u  -0.40706 0.16570
             4  0uu0  -0.14612 0.02135
             5  0u0u   0.06352 0.00403
             6  00uu   0.79739 0.63584
 
      printout of CI-coefficients larger than  0.05 for root  4
      energy=  -30442.775855
      conf/sym  1111     Coeff  Weight
             1  uu00   0.29244 0.08552
             2  u0u0  -0.18971 0.03599
             3  u00u   0.56676 0.32121
             4  0uu0   0.62073 0.38531
             5  0u0u   0.34830 0.12131
             6  00uu   0.22507 0.05066
 
      printout of CI-coefficients larger than  0.05 for root  5
      energy=  -30442.768954
      conf/sym  1111     Coeff  Weight
             1  uu00   0.17781 0.03162
             2  u0u0   0.60021 0.36026
             3  u00u   0.15422 0.02378
             4  0uu0   0.31356 0.09832
             5  0u0u  -0.69115 0.47769
             6  00uu   0.09128 0.00833
 
      printout of CI-coefficients larger than  0.05 for root  6
      energy=  -30442.715081
      conf/sym  1111     Coeff  Weight
             1  uu00   0.75896 0.57602
             2  u0u0  -0.11474 0.01317
             3  u00u   0.27206 0.07402
             4  0uu0  -0.46498 0.21621
             5  0u0u  -0.09860 0.00972
             6  00uu  -0.33296 0.11086
 
      Natural orbitals and occupation numbers for root  1
      sym 1:   0.641954   0.358046   0.641954   0.358046
 
      Natural orbitals and occupation numbers for root  2
      sym 1:   0.626631   0.373369   0.373369   0.626631
 
      Natural orbitals and occupation numbers for root  3
      sym 1:   0.187757   0.187757   0.812243   0.812243
 
      Natural orbitals and occupation numbers for root  4
      sym 1:   0.373369   0.626631   0.626631   0.373369
 
      Natural orbitals and occupation numbers for root  5
      sym 1:   0.358049   0.641951   0.358049   0.641951
 
      Natural orbitals and occupation numbers for root  6
      sym 1:   0.812241   0.812241   0.187759   0.187759
 
      ************************************************************************************************************************
      *                                                                                                                      *
      *                                                    Final results                                                     *
      *                                                                                                                      *
      ************************************************************************************************************************
 
 
++    Wave function specifications:
      -----------------------------
 
      Number of closed shell electrons         254
      Number of electrons in active shells       2
      Max number of holes in RAS1 space          0
      Max nr of electrons in RAS3 space          0
      Number of inactive orbitals              127
      Number of active orbitals                  4
      Number of secondary orbitals              46
      Spin quantum number                      1.0
      State symmetry                             1
--
 
++    Orbital specifications:
      -----------------------
 
      Symmetry species                           1
                                                 a
      Frozen orbitals                            0
      Inactive orbitals                        127
      Active orbitals                            4
      RAS1 orbitals                              0
      RAS2 orbitals                              4
      RAS3 orbitals                              0
      Secondary orbitals                        46
      Deleted orbitals                           0
      Number of basis functions                177
--
 
++    CI expansion specifications:
      ----------------------------
 
      Number of CSFs                             6
      Number of determinants                     6
      Number of root(s) required                 6
      CI roots used                              1     2     3     4     5     6
      weights                                0.167 0.167 0.167 0.167 0.167 0.167
      highest root included in the CI            6
      Root passed to geometry opt.               6
--
 
++    Final optimization conditions:
      ------------------------------
 
      Average CI energy                          -30442.77862491
      RASSCF energy for state  6                 -30442.71508071
      Super-CI energy                                -0.00000000
      RASSCF energy change                           -0.00000001
      Max change in MO coefficients               0.109E-03
      Max non-diagonal density matrix element    -0.995E-04
      Maximum BLB matrix element                  0.106E-04
      (orbital pair 103, 136 in symmetry   1)
      Norm of electronic gradient            0.604E-01
--
 
 
      Final state energy(ies):
      ------------------------
 
::    RASSCF root number  1 Total energy: -30442.80662737
::    RASSCF root number  2 Total energy: -30442.80625182
::    RASSCF root number  3 Total energy: -30442.79898027
::    RASSCF root number  4 Total energy: -30442.77585502
::    RASSCF root number  5 Total energy: -30442.76895425
::    RASSCF root number  6 Total energy: -30442.71508071
 
++    Molecular orbitals:
      -------------------
 
      Pseudonatural active orbitals and approximate occupation numbers
 
 
 
 
      Molecular orbitals for symmetry species 1: a  
 
 
      Orbital                1         2         3         4         5         6         7         8         9        10
      Energy        -4373.2174 -828.8956 -693.2417 -693.2411 -693.2408 -213.3169 -175.0447 -175.0441 -175.0404 -139.4032
      Occ. No.          2.0000    2.0000    2.0000    2.0000    2.0000    2.0000    2.0000    2.0000    2.0000    2.0000
 
    1 C1     1s        -0.0000   -0.0000   -0.0000   -0.0000   -0.0000   -0.0000   -0.0000   -0.0000   -0.0000    0.0000
    2 C1     2s        -0.0000   -0.0000   -0.0000   -0.0000   -0.0000   -0.0000   -0.0000   -0.0000   -0.0000    0.0000
    3 C1     2px        0.0000    0.0000   -0.0000   -0.0000   -0.0000    0.0000   -0.0000   -0.0000   -0.0000    0.0000
    4 C1     2py        0.0000    0.0000   -0.0000   -0.0000    0.0000    0.0000   -0.0000    0.0000   -0.0000    0.0000
    5 C1     2pz        0.0000    0.0000   -0.0000   -0.0000    0.0000    0.0000    0.0000    0.0000   -0.0000    0.0000
    6 S2     1s        -0.0000   -0.0000   -0.0000    0.0000    0.0000   -0.0000    0.0000    0.0000   -0.0000   -0.0000
    7 S2     2s        -0.0000   -0.0000   -0.0000    0.0000    0.0000   -0.0000    0.0000    0.0000   -0.0000   -0.0000
    8 S2     3s        -0.0000   -0.0000   -0.0000    0.0000    0.0000   -0.0000    0.0000    0.0000   -0.0000   -0.0000
    9 S2     2px       -0.0000   -0.0000    0.0000   -0.0000    0.0000   -0.0000   -0.0000    0.0000    0.0000    0.0000
   10 S2     3px       -0.0000   -0.0000    0.0000   -0.0000   -0.0000   -0.0000   -0.0000   -0.0000    0.0000    0.0000
   11 S2     2py       -0.0000   -0.0000    0.0000   -0.0000   -0.0000   -0.0000   -0.0000   -0.0000    0.0000    0.0000
   12 S2     3py       -0.0000   -0.0000    0.0000   -0.0000    0.0000   -0.0000   -0.0000    0.0000    0.0000    0.0000
   13 S2     2pz        0.0000    0.0000    0.0000    0.0000    0.0000    0.0000    0.0000    0.0000    0.0000   -0.0000
   14 S2     3pz        0.0000    0.0000    0.0000    0.0000    0.0000    0.0000    0.0000    0.0000    0.0000   -0.0000
   15 O3     1s         0.0000    0.0000    0.0000    0.0000    0.0000    0.0000    0.0000    0.0000    0.0000   -0.0000
   16 O3     2s         0.0000    0.0000    0.0000    0.0000    0.0000    0.0000    0.0000    0.0000   -0.0000   -0.0000
   17 O3     2px       -0.0000   -0.0000   -0.0000    0.0000    0.0000   -0.0000    0.0000    0.0000   -0.0000   -0.0000
   18 O3     2py       -0.0000   -0.0000    0.0000    0.0000    0.0000   -0.0000    0.0000    0.0000    0.0000   -0.0000
   19 O3     2pz        0.0000    0.0000    0.0000    0.0000    0.0000    0.0000    0.0000   -0.0000    0.0000    0.0000
   20 NP4    1s         1.0000   -0.0000   -0.0000    0.0000    0.0000    0.0000   -0.0000   -0.0000    0.0000   -0.0000
   21 NP4    2s         0.0000    1.0000   -0.0000   -0.0000    0.0000   -0.0000   -0.0000    0.0000   -0.0000    0.0000
   22 NP4    3s        -0.0000    0.0000    0.0000    0.0000   -0.0000    1.0000   -0.0000    0.0000   -0.0000    0.0000
   23 NP4    4s         0.0000   -0.0000   -0.0000    0.0000    0.0000   -0.0000    0.0000   -0.0000    0.0000   -0.0000
   24 NP4    5s        -0.0000    0.0000    0.0000    0.0000   -0.0000    0.0000    0.0000    0.0000   -0.0000    0.0000
   25 NP4    6s         0.0000   -0.0000    0.0000    0.0000   -0.0000    0.0000    0.0000   -0.0000    0.0000   -0.0000
   26 NP4    7s        -0.0000    0.0000    0.0000    0.0000   -0.0000   -0.0000    0.0000   -0.0000    0.0000    0.0000
   27 NP4    2px       -0.0000   -0.0000    0.0002    0.4450    0.8955    0.0000   -0.0000   -0.0000    0.0000    0.0000
   28 NP4    3px        0.0000   -0.0000   -0.0000    0.0000    0.0000   -0.0000    0.4451    0.8955    0.0004    0.0000
   29 NP4    4px       -0.0000    0.0000    0.0000   -0.0000   -0.0000   -0.0000   -0.0000   -0.0000   -0.0000    0.0000
   30 NP4    5px        0.0000   -0.0000   -0.0000    0.0000    0.0000    0.0000    0.0000    0.0000    0.0000   -0.0000
   31 NP4    6px       -0.0000   -0.0000    0.0000   -0.0000   -0.0000   -0.0000   -0.0000   -0.0000   -0.0000    0.0000
   32 NP4    7px       -0.0000   -0.0000   -0.0000   -0.0000    0.0000   -0.0000    0.0000    0.0000    0.0000   -0.0000
   33 NP4    2py        0.0000    0.0000    0.0003    0.8955   -0.4450   -0.0000   -0.0000    0.0000    0.0000   -0.0000
   34 NP4    3py       -0.0000    0.0000   -0.0000    0.0000   -0.0000    0.0000    0.8955   -0.4451    0.0007   -0.0000
   35 NP4    4py        0.0000   -0.0000    0.0000   -0.0000    0.0000    0.0000   -0.0000    0.0000   -0.0000   -0.0000
   36 NP4    5py       -0.0000    0.0000   -0.0000    0.0000   -0.0000   -0.0000    0.0000   -0.0000    0.0000    0.0000
   37 NP4    6py       -0.0000   -0.0000    0.0000   -0.0000    0.0000   -0.0000   -0.0000    0.0000   -0.0000   -0.0000
   38 NP4    7py       -0.0000   -0.0000   -0.0000   -0.0000   -0.0000   -0.0000    0.0000   -0.0000    0.0000   -0.0000
   39 NP4    2pz        0.0000    0.0000    1.0000   -0.0004   -0.0001   -0.0000    0.0000   -0.0000   -0.0000   -0.0000
   40 NP4    3pz       -0.0000    0.0000    0.0000   -0.0000   -0.0000    0.0000   -0.0008    0.0000    1.0000   -0.0000
   41 NP4    4pz        0.0000   -0.0000   -0.0000    0.0000    0.0000    0.0000   -0.0000    0.0000   -0.0000   -0.0000
   42 NP4    5pz       -0.0000    0.0000    0.0000   -0.0000   -0.0000   -0.0000    0.0000   -0.0000    0.0000    0.0000
   43 NP4    6pz        0.0000   -0.0000    0.0000   -0.0000   -0.0000    0.0000   -0.0000    0.0000    0.0000   -0.0000
   44 NP4    7pz       -0.0000   -0.0000    0.0000   -0.0000   -0.0000   -0.0000   -0.0000   -0.0000    0.0000   -0.0000
   45 NP4    3d2-      -0.0000    0.0000   -0.0000   -0.0000    0.0000    0.0000   -0.0000    0.0000   -0.0000   -0.7969
   46 NP4    4d2-       0.0000   -0.0000   -0.0000    0.0000   -0.0000    0.0000   -0.0000    0.0000    0.0000    0.0000
   47 NP4    5d2-      -0.0000    0.0000    0.0000   -0.0000    0.0000   -0.0000    0.0000   -0.0000   -0.0000   -0.0000
   48 NP4    6d2-      -0.0000   -0.0000    0.0000   -0.0000   -0.0000   -0.0000   -0.0000    0.0000    0.0000   -0.0000
   49 NP4    3d1-      -0.0000   -0.0000    0.0000    0.0000   -0.0000   -0.0000    0.0000   -0.0000    0.0000    0.0060
   50 NP4    4d1-       0.0000    0.0000   -0.0000   -0.0000    0.0000   -0.0000    0.0000   -0.0000    0.0000   -0.0000
   51 NP4    5d1-      -0.0000   -0.0000    0.0000    0.0000   -0.0000   -0.0000   -0.0000    0.0000   -0.0000    0.0000
   52 NP4    6d1-       0.0000    0.0000    0.0000    0.0000    0.0000    0.0000    0.0000   -0.0000    0.0000   -0.0000
   53 NP4    3d0        0.0000   -0.0000    0.0000   -0.0000   -0.0000   -0.0000   -0.0000    0.0000    0.0000    0.0051
   54 NP4    4d0       -0.0000   -0.0000   -0.0000    0.0000   -0.0000   -0.0000   -0.0000   -0.0000    0.0000   -0.0000
   55 NP4    5d0        0.0000    0.0000    0.0000    0.0000    0.0000   -0.0000    0.0000   -0.0000   -0.0000    0.0000
   56 NP4    6d0        0.0000    0.0000    0.0000   -0.0000   -0.0000    0.0000   -0.0000   -0.0000    0.0000   -0.0000
   57 NP4    3d1+      -0.0000   -0.0000   -0.0000    0.0000    0.0000   -0.0000    0.0000    0.0000   -0.0000    0.0030
   58 NP4    4d1+       0.0000    0.0000    0.0000   -0.0000   -0.0000   -0.0000    0.0000    0.0000   -0.0000   -0.0000
   59 NP4    5d1+      -0.0000   -0.0000   -0.0000    0.0000    0.0000   -0.0000   -0.0000   -0.0000    0.0000    0.0000
   60 NP4    6d1+       0.0000    0.0000   -0.0000    0.0000   -0.0000    0.0000    0.0000    0.0000   -0.0000   -0.0000
   61 NP4    3d2+       0.0000   -0.0000    0.0000   -0.0000   -0.0000   -0.0000   -0.0000   -0.0000   -0.0000    0.6040
   62 NP4    4d2+      -0.0000    0.0000   -0.0000    0.0000    0.0000   -0.0000   -0.0000    0.0000    0.0000   -0.0000
   63 NP4    5d2+       0.0000   -0.0000    0.0000   -0.0000   -0.0000    0.0000    0.0000   -0.0000   -0.0000    0.0000
   64 NP4    6d2+       0.0000    0.0000   -0.0000   -0.0000    0.0000    0.0000   -0.0000    0.0000   -0.0000    0.0000
   65 NP4    4f3-       0.0000   -0.0000    0.0000   -0.0000   -0.0000   -0.0000   -0.0000    0.0000    0.0000    0.0000
   66 NP4    5f3-       0.0000    0.0000   -0.0000    0.0000    0.0000    0.0000    0.0000   -0.0000   -0.0000   -0.0000
   67 NP4    4f2-      -0.0000    0.0000    0.0000   -0.0000   -0.0000    0.0000   -0.0000   -0.0000    0.0000   -0.0000
   68 NP4    5f2-      -0.0000   -0.0000   -0.0000   -0.0000    0.0000    0.0000    0.0000    0.0000   -0.0000    0.0000
   69 NP4    4f1-       0.0000    0.0000   -0.0000   -0.0000    0.0000    0.0000   -0.0000    0.0000   -0.0000    0.0000
   70 NP4    5f1-       0.0000    0.0000    0.0000    0.0000   -0.0000    0.0000    0.0000   -0.0000    0.0000   -0.0000
   71 NP4    4f0        0.0000    0.0000   -0.0000    0.0000   -0.0000    0.0000    0.0000   -0.0000   -0.0000   -0.0000
   72 NP4    5f0        0.0000   -0.0000    0.0000   -0.0000   -0.0000    0.0000   -0.0000    0.0000    0.0000    0.0000
   73 NP4    4f1+      -0.0000   -0.0000   -0.0000   -0.0000   -0.0000   -0.0000   -0.0000   -0.0000   -0.0000   -0.0000
   74 NP4    5f1+      -0.0000    0.0000    0.0000    0.0000    0.0000   -0.0000    0.0000    0.0000    0.0000    0.0000
   75 NP4    4f2+      -0.0000    0.0000   -0.0000    0.0000   -0.0000    0.0000    0.0000   -0.0000   -0.0000    0.0000
   76 NP4    5f2+      -0.0000   -0.0000    0.0000    0.0000    0.0000   -0.0000   -0.0000    0.0000    0.0000   -0.0000
   77 NP4    4f3+      -0.0000    0.0000    0.0000   -0.0000    0.0000    0.0000   -0.0000   -0.0000    0.0000    0.0000
   78 NP4    5f3+       0.0000   -0.0000   -0.0000    0.0000   -0.0000   -0.0000    0.0000    0.0000   -0.0000   -0.0000
   79 O5     1s         0.0000    0.0000   -0.0000   -0.0000   -0.0000    0.0000   -0.0000   -0.0000   -0.0000   -0.0000
   80 O5     2s         0.0000    0.0000   -0.0000   -0.0000   -0.0000    0.0000   -0.0000   -0.0000    0.0000   -0.0000
   81 O5     2px        0.0000    0.0000   -0.0000    0.0000    0.0000    0.0000    0.0000    0.0000   -0.0000    0.0000
   82 O5     2py        0.0000    0.0000    0.0000    0.0000    0.0000    0.0000    0.0000    0.0000    0.0000    0.0000
   83 O5     2pz       -0.0000   -0.0000    0.0000    0.0000    0.0000   -0.0000    0.0000   -0.0000    0.0000   -0.0000
   84 S6     1s        -0.0000   -0.0000    0.0000   -0.0000    0.0000   -0.0000   -0.0000    0.0000    0.0000   -0.0000
   85 S6     2s        -0.0000   -0.0000    0.0000   -0.0000    0.0000   -0.0000   -0.0000    0.0000    0.0000   -0.0000
   86 S6     3s        -0.0000   -0.0000    0.0000   -0.0000    0.0000   -0.0000   -0.0000    0.0000    0.0000   -0.0000
   87 S6     2px        0.0000    0.0000    0.0000   -0.0000    0.0000    0.0000   -0.0000    0.0000    0.0000   -0.0000
   88 S6     3px        0.0000    0.0000    0.0000   -0.0000   -0.0000    0.0000   -0.0000   -0.0000    0.0000   -0.0000
   89 S6     2py        0.0000    0.0000    0.0000   -0.0000   -0.0000    0.0000   -0.0000   -0.0000    0.0000   -0.0000
   90 S6     3py        0.0000    0.0000    0.0000   -0.0000    0.0000    0.0000   -0.0000    0.0000    0.0000   -0.0000
   91 S6     2pz       -0.0000   -0.0000    0.0000    0.0000    0.0000   -0.0000    0.0000    0.0000    0.0000    0.0000
   92 S6     3pz       -0.0000   -0.0000    0.0000    0.0000    0.0000   -0.0000    0.0000    0.0000    0.0000    0.0000
   93 C7     1s        -0.0000   -0.0000    0.0000    0.0000   -0.0000   -0.0000    0.0000   -0.0000    0.0000    0.0000
   94 C7     2s        -0.0000   -0.0000    0.0000    0.0000   -0.0000   -0.0000    0.0000   -0.0000    0.0000    0.0000
   95 C7     2px       -0.0000   -0.0000   -0.0000   -0.0000   -0.0000   -0.0000   -0.0000   -0.0000   -0.0000   -0.0000
   96 C7     2py       -0.0000   -0.0000   -0.0000   -0.0000    0.0000   -0.0000   -0.0000    0.0000   -0.0000   -0.0000
   97 C7     2pz       -0.0000   -0.0000   -0.0000   -0.0000    0.0000   -0.0000    0.0000   -0.0000   -0.0000   -0.0000
   98 O8     1s         0.0000    0.0000    0.0000    0.0000   -0.0000    0.0000    0.0000   -0.0000    0.0000   -0.0000
   99 O8     2s         0.0000    0.0000    0.0000    0.0000   -0.0000    0.0000    0.0000   -0.0000   -0.0000   -0.0000
  100 O8     2px        0.0000    0.0000    0.0000   -0.0000    0.0000    0.0000   -0.0000    0.0000    0.0000   -0.0000
  101 O8     2py       -0.0000   -0.0000   -0.0000    0.0000   -0.0000   -0.0000    0.0000   -0.0000    0.0000   -0.0000
  102 O8     2pz        0.0000    0.0000    0.0000    0.0000   -0.0000    0.0000    0.0000    0.0000    0.0000    0.0000
  103 O9     1s         0.0000    0.0000   -0.0000   -0.0000    0.0000    0.0000   -0.0000    0.0000   -0.0000   -0.0000
  104 O9     2s         0.0000    0.0000   -0.0000   -0.0000    0.0000    0.0000   -0.0000    0.0000    0.0000   -0.0000
  105 O9     2px       -0.0000   -0.0000    0.0000   -0.0000    0.0000   -0.0000   -0.0000    0.0000    0.0000    0.0000
  106 O9     2py        0.0000    0.0000   -0.0000    0.0000   -0.0000    0.0000    0.0000   -0.0000    0.0000    0.0000
  107 O9     2pz       -0.0000   -0.0000    0.0000    0.0000   -0.0000   -0.0000    0.0000    0.0000    0.0000   -0.0000
  108 O10    1s         0.0000    0.0000    0.0000   -0.0000   -0.0000    0.0000   -0.0000    0.0000    0.0000    0.0000
  109 O10    2s        -0.0000    0.0000    0.0000   -0.0000   -0.0000   -0.0000   -0.0000    0.0000    0.0000    0.0000
  110 O10    2px       -0.0000   -0.0000   -0.0000   -0.0000   -0.0000   -0.0000   -0.0000   -0.0000   -0.0000   -0.0000
  111 O10    2py       -0.0000   -0.0000   -0.0000   -0.0000    0.0000   -0.0000   -0.0000    0.0000   -0.0000   -0.0000
  112 O10    2pz       -0.0000   -0.0000    0.0000   -0.0000    0.0000   -0.0000   -0.0000    0.0000    0.0000    0.0000
  113 O11    1s         0.0000    0.0000   -0.0000    0.0000    0.0000    0.0000    0.0000    0.0000   -0.0000    0.0000
  114 O11    2s        -0.0000    0.0000   -0.0000    0.0000    0.0000   -0.0000    0.0000    0.0000   -0.0000    0.0000
  115 O11    2px        0.0000    0.0000   -0.0000   -0.0000   -0.0000    0.0000   -0.0000   -0.0000   -0.0000    0.0000
  116 O11    2py        0.0000    0.0000   -0.0000   -0.0000    0.0000    0.0000   -0.0000    0.0000   -0.0000    0.0000
  117 O11    2pz        0.0000    0.0000    0.0000   -0.0000   -0.0000    0.0000   -0.0000    0.0000    0.0000   -0.0000
  118 C12    1s        -0.0000   -0.0000   -0.0000   -0.0000    0.0000   -0.0000   -0.0000    0.0000   -0.0000   -0.0000
  119 C12    2s        -0.0000   -0.0000    0.0000   -0.0000    0.0000   -0.0000   -0.0000   -0.0000    0.0000   -0.0000
  120 C12    2px        0.0000    0.0000   -0.0000    0.0000   -0.0000    0.0000    0.0000   -0.0000   -0.0000   -0.0000
  121 C12    2py        0.0000    0.0000   -0.0000    0.0000    0.0000    0.0000    0.0000    0.0000   -0.0000   -0.0000
  122 C12    2pz        0.0000    0.0000    0.0000    0.0000   -0.0000    0.0000    0.0000   -0.0000    0.0000   -0.0000
  123 C13    1s         0.0000    0.0000    0.0000    0.0000   -0.0000    0.0000    0.0000   -0.0000    0.0000   -0.0000
  124 C13    2s         0.0000    0.0000    0.0000    0.0000   -0.0000    0.0000    0.0000   -0.0000    0.0000   -0.0000
  125 C13    2px        0.0000    0.0000    0.0000    0.0000   -0.0000    0.0000    0.0000   -0.0000    0.0000    0.0000
  126 C13    2py        0.0000    0.0000    0.0000    0.0000    0.0000    0.0000    0.0000    0.0000    0.0000    0.0000
  127 C13    2pz        0.0000    0.0000   -0.0000    0.0000   -0.0000    0.0000    0.0000   -0.0000    0.0000    0.0000
  128 C14    1s         0.0000    0.0000    0.0000    0.0000    0.0000    0.0000    0.0000    0.0000    0.0000    0.0000
  129 C14    2s         0.0000    0.0000    0.0000    0.0000   -0.0000    0.0000    0.0000    0.0000    0.0000    0.0000
  130 C14    2px        0.0000    0.0000    0.0000    0.0000   -0.0000    0.0000    0.0000   -0.0000    0.0000    0.0000
  131 C14    2py        0.0000    0.0000    0.0000    0.0000    0.0000    0.0000    0.0000    0.0000    0.0000    0.0000
  132 C14    2pz        0.0000    0.0000    0.0000    0.0000   -0.0000    0.0000    0.0000   -0.0000    0.0000    0.0000
  133 C15    1s         0.0000   -0.0000   -0.0000   -0.0000   -0.0000   -0.0000   -0.0000   -0.0000   -0.0000   -0.0000
  134 C15    2s         0.0000    0.0000   -0.0000   -0.0000   -0.0000    0.0000   -0.0000   -0.0000   -0.0000   -0.0000
  135 C15    2px        0.0000    0.0000    0.0000    0.0000   -0.0000    0.0000    0.0000   -0.0000    0.0000   -0.0000
  136 C15    2py        0.0000    0.0000    0.0000    0.0000    0.0000    0.0000    0.0000    0.0000    0.0000   -0.0000
  137 C15    2pz        0.0000    0.0000    0.0000   -0.0000    0.0000    0.0000    0.0000    0.0000    0.0000   -0.0000
  138 C16    1s         0.0000    0.0000    0.0000    0.0000    0.0000    0.0000    0.0000    0.0000    0.0000    0.0000
  139 C16    2s         0.0000    0.0000    0.0000    0.0000    0.0000    0.0000    0.0000    0.0000    0.0000    0.0000
  140 C16    2px       -0.0000   -0.0000    0.0000    0.0000   -0.0000   -0.0000    0.0000   -0.0000    0.0000    0.0000
  141 C16    2py       -0.0000   -0.0000    0.0000    0.0000    0.0000   -0.0000    0.0000    0.0000    0.0000    0.0000
  142 C16    2pz       -0.0000   -0.0000   -0.0000   -0.0000   -0.0000   -0.0000   -0.0000   -0.0000   -0.0000   -0.0000
  143 H17    1s         0.0000    0.0000    0.0000    0.0000   -0.0000    0.0000    0.0000   -0.0000    0.0000    0.0000
  144 H18    1s         0.0000    0.0000    0.0000    0.0000   -0.0000    0.0000    0.0000   -0.0000    0.0000    0.0000
  145 H19    1s         0.0000    0.0000    0.0000    0.0000   -0.0000    0.0000    0.0000   -0.0000    0.0000    0.0000
  146 H20    1s         0.0000    0.0000    0.0000    0.0000    0.0000    0.0000    0.0000    0.0000    0.0000    0.0000
  147 H21    1s        -0.0000   -0.0000   -0.0000   -0.0000   -0.0000   -0.0000   -0.0000   -0.0000   -0.0000   -0.0000
  148 C22    1s        -0.0000   -0.0000    0.0000    0.0000    0.0000   -0.0000    0.0000    0.0000    0.0000   -0.0000
  149 C22    2s        -0.0000   -0.0000   -0.0000    0.0000    0.0000   -0.0000    0.0000    0.0000   -0.0000   -0.0000
  150 C22    2px       -0.0000   -0.0000   -0.0000    0.0000   -0.0000   -0.0000    0.0000   -0.0000   -0.0000    0.0000
  151 C22    2py       -0.0000   -0.0000   -0.0000    0.0000    0.0000   -0.0000    0.0000    0.0000   -0.0000    0.0000
  152 C22    2pz       -0.0000   -0.0000    0.0000    0.0000    0.0000   -0.0000    0.0000    0.0000    0.0000    0.0000
  153 C23    1s         0.0000    0.0000   -0.0000   -0.0000   -0.0000    0.0000   -0.0000    0.0000   -0.0000   -0.0000
  154 C23    2s         0.0000    0.0000   -0.0000   -0.0000   -0.0000    0.0000   -0.0000   -0.0000   -0.0000   -0.0000
  155 C23    2px       -0.0000   -0.0000    0.0000    0.0000   -0.0000   -0.0000    0.0000   -0.0000    0.0000   -0.0000
  156 C23    2py       -0.0000   -0.0000    0.0000    0.0000    0.0000   -0.0000    0.0000    0.0000    0.0000   -0.0000
  157 C23    2pz       -0.0000   -0.0000   -0.0000    0.0000   -0.0000   -0.0000    0.0000    0.0000    0.0000   -0.0000
  158 C24    1s         0.0000    0.0000   -0.0000   -0.0000   -0.0000    0.0000   -0.0000   -0.0000   -0.0000    0.0000
  159 C24    2s         0.0000    0.0000   -0.0000   -0.0000   -0.0000    0.0000   -0.0000   -0.0000   -0.0000    0.0000
  160 C24    2px       -0.0000   -0.0000    0.0000    0.0000   -0.0000   -0.0000    0.0000   -0.0000    0.0000   -0.0000
  161 C24    2py       -0.0000   -0.0000    0.0000    0.0000    0.0000   -0.0000    0.0000    0.0000    0.0000   -0.0000
  162 C24    2pz       -0.0000   -0.0000    0.0000    0.0000    0.0000   -0.0000    0.0000    0.0000    0.0000   -0.0000
  163 C25    1s         0.0000   -0.0000    0.0000    0.0000    0.0000   -0.0000    0.0000    0.0000    0.0000   -0.0000
  164 C25    2s         0.0000    0.0000    0.0000    0.0000    0.0000    0.0000    0.0000    0.0000    0.0000   -0.0000
  165 C25    2px       -0.0000   -0.0000    0.0000    0.0000   -0.0000   -0.0000    0.0000   -0.0000    0.0000    0.0000
  166 C25    2py       -0.0000   -0.0000    0.0000    0.0000    0.0000   -0.0000    0.0000    0.0000    0.0000    0.0000
  167 C25    2pz       -0.0000   -0.0000    0.0000   -0.0000    0.0000   -0.0000    0.0000    0.0000    0.0000    0.0000
  168 C26    1s         0.0000    0.0000   -0.0000   -0.0000   -0.0000    0.0000   -0.0000   -0.0000   -0.0000    0.0000
  169 C26    2s         0.0000    0.0000   -0.0000   -0.0000   -0.0000    0.0000   -0.0000   -0.0000   -0.0000    0.0000
  170 C26    2px        0.0000    0.0000    0.0000    0.0000   -0.0000    0.0000    0.0000   -0.0000    0.0000   -0.0000
  171 C26    2py        0.0000    0.0000    0.0000    0.0000    0.0000    0.0000    0.0000    0.0000    0.0000   -0.0000
  172 C26    2pz        0.0000    0.0000   -0.0000   -0.0000   -0.0000    0.0000   -0.0000   -0.0000   -0.0000    0.0000
  173 H27    1s         0.0000    0.0000   -0.0000   -0.0000    0.0000    0.0000   -0.0000   -0.0000   -0.0000    0.0000
  174 H28    1s         0.0000    0.0000   -0.0000   -0.0000   -0.0000    0.0000   -0.0000   -0.0000   -0.0000    0.0000
  175 H29    1s         0.0000    0.0000   -0.0000   -0.0000   -0.0000    0.0000   -0.0000   -0.0000   -0.0000    0.0000
  176 H30    1s         0.0000    0.0000   -0.0000   -0.0000   -0.0000    0.0000   -0.0000   -0.0000   -0.0000    0.0000
  177 H31    1s        -0.0000   -0.0000    0.0000    0.0000    0.0000   -0.0000    0.0000    0.0000    0.0000   -0.0000
 
 
      Orbital               11        12        13        14        15        16        17        18        19        20
      Energy         -139.4029 -139.4020 -139.4017 -139.4009  -92.4165  -92.4165  -56.4485  -43.6797  -43.6787  -43.6737
      Occ. No.          2.0000    2.0000    2.0000    2.0000    2.0000    2.0000    2.0000    2.0000    2.0000    2.0000
 
    1 C1     1s        -0.0000   -0.0000   -0.0000    0.0000    0.0000   -0.0000   -0.0000   -0.0000   -0.0000   -0.0000
    2 C1     2s        -0.0000   -0.0000    0.0000    0.0000    0.0000   -0.0000   -0.0000   -0.0000   -0.0000   -0.0000
    3 C1     2px       -0.0000   -0.0000   -0.0000   -0.0000    0.0000    0.0000    0.0000   -0.0000   -0.0000   -0.0000
    4 C1     2py        0.0000   -0.0000    0.0000   -0.0000    0.0000    0.0000    0.0000   -0.0000    0.0000   -0.0000
    5 C1     2pz        0.0000    0.0000   -0.0000   -0.0000    0.0000    0.0000    0.0000   -0.0000    0.0000   -0.0000
    6 S2     1s         0.0000    0.0000   -0.0000    0.0000   -1.0000    0.0009   -0.0000    0.0000   -0.0000   -0.0000
    7 S2     2s         0.0000    0.0000   -0.0000    0.0000    0.0000   -0.0000   -0.0000    0.0000   -0.0000   -0.0000
    8 S2     3s         0.0000    0.0000   -0.0000    0.0000    0.0004   -0.0000   -0.0000    0.0000   -0.0000    0.0000
    9 S2     2px        0.0000    0.0000    0.0000    0.0000    0.0000    0.0000   -0.0000   -0.0000    0.0000    0.0000
   10 S2     3px       -0.0000    0.0000    0.0000   -0.0000   -0.0000    0.0000   -0.0000   -0.0000    0.0000    0.0000
   11 S2     2py       -0.0000    0.0000   -0.0000    0.0000    0.0001    0.0000   -0.0000   -0.0000   -0.0000    0.0000
   12 S2     3py        0.0000    0.0000   -0.0000   -0.0000   -0.0000    0.0000   -0.0000   -0.0000   -0.0000    0.0000
   13 S2     2pz        0.0000    0.0000   -0.0000   -0.0000   -0.0001    0.0000    0.0000    0.0000    0.0000    0.0000
   14 S2     3pz        0.0000    0.0000   -0.0000   -0.0000    0.0000    0.0000    0.0000   -0.0000    0.0000    0.0000
   15 O3     1s         0.0000    0.0000    0.0000    0.0000   -0.0000   -0.0000    0.0000    0.0000    0.0000    0.0000
   16 O3     2s         0.0000    0.0000    0.0000    0.0000   -0.0000   -0.0000    0.0000    0.0000    0.0000    0.0000
   17 O3     2px        0.0000   -0.0000    0.0000   -0.0000    0.0000    0.0000   -0.0000    0.0000    0.0000   -0.0000
   18 O3     2py       -0.0000    0.0000   -0.0000   -0.0000   -0.0000    0.0000   -0.0000    0.0000    0.0000    0.0000
   19 O3     2pz       -0.0000    0.0000    0.0000    0.0000   -0.0000    0.0000    0.0000    0.0000    0.0000    0.0000
   20 NP4    1s         0.0000    0.0000   -0.0000   -0.0000    0.0000   -0.0000   -0.0000    0.0000    0.0000   -0.0000
   21 NP4    2s        -0.0000    0.0000   -0.0000    0.0000    0.0000   -0.0000    0.0000    0.0000   -0.0000    0.0000
   22 NP4    3s        -0.0000    0.0000   -0.0000    0.0000    0.0000   -0.0000    0.0000   -0.0000    0.0000   -0.0000
   23 NP4    4s         0.0000    0.0000    0.0000    0.0000    0.0000   -0.0000    1.0000   -0.0000    0.0000   -0.0000
   24 NP4    5s         0.0000   -0.0000   -0.0000   -0.0000    0.0000   -0.0000   -0.0001    0.0000   -0.0000    0.0000
   25 NP4    6s        -0.0000    0.0000    0.0000    0.0000    0.0000   -0.0000    0.0000    0.0000    0.0000   -0.0000
   26 NP4    7s        -0.0000   -0.0000   -0.0000   -0.0000    0.0000   -0.0000   -0.0000    0.0000   -0.0000    0.0000
   27 NP4    2px        0.0000   -0.0000   -0.0000    0.0000    0.0000    0.0000   -0.0000    0.0000    0.0000   -0.0000
   28 NP4    3px        0.0000   -0.0000   -0.0000   -0.0000    0.0000    0.0000    0.0000    0.0000    0.0000    0.0000
   29 NP4    4px        0.0000    0.0000    0.0000   -0.0000    0.0000    0.0000   -0.0000    0.4451    0.8955    0.0018
   30 NP4    5px       -0.0000   -0.0000   -0.0000   -0.0000    0.0000    0.0000   -0.0000   -0.0001   -0.0002   -0.0000
   31 NP4    6px        0.0000    0.0000   -0.0000    0.0000    0.0000    0.0000   -0.0000    0.0000    0.0000    0.0000
   32 NP4    7px       -0.0000    0.0000   -0.0000   -0.0000    0.0000    0.0000   -0.0000   -0.0000   -0.0000   -0.0000
   33 NP4    2py        0.0000   -0.0000    0.0000    0.0000    0.0000    0.0000    0.0000    0.0000   -0.0000   -0.0000
   34 NP4    3py        0.0000   -0.0000    0.0000    0.0000    0.0000    0.0000   -0.0000    0.0000   -0.0000    0.0000
   35 NP4    4py       -0.0000    0.0000   -0.0000   -0.0000    0.0000    0.0000    0.0000    0.8955   -0.4451    0.0038
   36 NP4    5py        0.0000   -0.0000    0.0000    0.0000    0.0000    0.0000    0.0000   -0.0002    0.0001   -0.0000
   37 NP4    6py       -0.0000    0.0000    0.0000   -0.0000    0.0000    0.0000   -0.0000    0.0000   -0.0000    0.0000
   38 NP4    7py       -0.0000    0.0000   -0.0000   -0.0000    0.0000    0.0000   -0.0000   -0.0000    0.0000   -0.0000
   39 NP4    2pz       -0.0000   -0.0000    0.0000   -0.0000   -0.0000   -0.0000    0.0000   -0.0000    0.0000    0.0000
   40 NP4    3pz        0.0000   -0.0000    0.0000   -0.0000   -0.0000   -0.0000   -0.0000    0.0000    0.0000    0.0000
   41 NP4    4pz        0.0000    0.0000   -0.0000    0.0000   -0.0000   -0.0000    0.0000   -0.0042    0.0000    1.0000
   42 NP4    5pz       -0.0000    0.0000    0.0000   -0.0000   -0.0000   -0.0000    0.0000   -0.0000    0.0000   -0.0001
   43 NP4    6pz        0.0000    0.0000   -0.0000   -0.0000   -0.0000   -0.0000    0.0000   -0.0000   -0.0000    0.0000
   44 NP4    7pz       -0.0000    0.0000    0.0000   -0.0000   -0.0000   -0.0000    0.0000   -0.0000    0.0000   -0.0000
   45 NP4    3d2-       0.6040    0.0053    0.0059    0.0040    0.0000   -0.0000   -0.0000    0.0000   -0.0000   -0.0000
   46 NP4    4d2-      -0.0000   -0.0000   -0.0000    0.0000    0.0000   -0.0000    0.0000   -0.0000    0.0000   -0.0000
   47 NP4    5d2-       0.0000    0.0000    0.0000   -0.0000    0.0000   -0.0000    0.0000   -0.0000   -0.0000    0.0000
   48 NP4    6d2-       0.0000   -0.0000   -0.0000   -0.0000    0.0000   -0.0000   -0.0000   -0.0000   -0.0000    0.0000
   49 NP4    3d1-       0.0045    0.8954   -0.4451   -0.0033   -0.0000    0.0000    0.0000   -0.0000    0.0000   -0.0000
   50 NP4    4d1-      -0.0000   -0.0000    0.0000    0.0000   -0.0000    0.0000   -0.0000    0.0000   -0.0000    0.0000
   51 NP4    5d1-       0.0000    0.0000   -0.0000   -0.0000   -0.0000    0.0000   -0.0000   -0.0000    0.0000    0.0000
   52 NP4    6d1-      -0.0000   -0.0000    0.0000    0.0000   -0.0000    0.0000    0.0000    0.0000   -0.0000    0.0000
   53 NP4    3d0       -0.0000    0.0036   -0.0000    1.0000   -0.0000    0.0000   -0.0000    0.0000   -0.0000   -0.0000
   54 NP4    4d0        0.0000   -0.0000    0.0000   -0.0000   -0.0000    0.0000   -0.0001   -0.0000    0.0000    0.0000
   55 NP4    5d0       -0.0000    0.0000   -0.0000    0.0000   -0.0000    0.0000    0.0001   -0.0000   -0.0000    0.0000
   56 NP4    6d0       -0.0000   -0.0000    0.0000    0.0000   -0.0000    0.0000    0.0000    0.0000    0.0000    0.0000
   57 NP4    3d1+      -0.0087    0.4451    0.8954   -0.0016   -0.0000    0.0000    0.0000   -0.0000   -0.0000    0.0000
   58 NP4    4d1+       0.0000   -0.0000   -0.0000    0.0000   -0.0000    0.0000   -0.0000    0.0000    0.0000   -0.0000
   59 NP4    5d1+      -0.0000    0.0000    0.0000   -0.0000   -0.0000    0.0000   -0.0000    0.0000   -0.0000   -0.0000
   60 NP4    6d1+       0.0000   -0.0000   -0.0000    0.0000   -0.0000    0.0000    0.0000    0.0000    0.0000   -0.0000
   61 NP4    3d2+       0.7969   -0.0041    0.0078   -0.0030   -0.0000    0.0000    0.0000    0.0000   -0.0000   -0.0000
   62 NP4    4d2+      -0.0000    0.0000   -0.0000   -0.0000   -0.0000    0.0000   -0.0000   -0.0000   -0.0000   -0.0000
   63 NP4    5d2+       0.0000   -0.0000    0.0000    0.0000   -0.0000    0.0000   -0.0000   -0.0000    0.0000    0.0000
   64 NP4    6d2+       0.0000    0.0000   -0.0000    0.0000   -0.0000    0.0000    0.0000   -0.0000    0.0000   -0.0000
   65 NP4    4f3-       0.0000    0.0000   -0.0000    0.0000   -0.0000   -0.0000   -0.0000   -0.0000    0.0000    0.0000
   66 NP4    5f3-      -0.0000   -0.0000    0.0000    0.0000   -0.0000   -0.0000    0.0000   -0.0000   -0.0000    0.0000
   67 NP4    4f2-       0.0000   -0.0000    0.0000   -0.0000   -0.0000   -0.0000    0.0000   -0.0000   -0.0000    0.0000
   68 NP4    5f2-      -0.0000    0.0000   -0.0000    0.0000   -0.0000   -0.0000   -0.0000   -0.0000   -0.0000   -0.0000
   69 NP4    4f1-       0.0000    0.0000   -0.0000    0.0000   -0.0000   -0.0000    0.0000   -0.0000    0.0000   -0.0000
   70 NP4    5f1-      -0.0000   -0.0000    0.0000   -0.0000   -0.0000   -0.0000    0.0000    0.0000   -0.0000    0.0000
   71 NP4    4f0        0.0000   -0.0000    0.0000    0.0000   -0.0000   -0.0000    0.0000    0.0000   -0.0000    0.0000
   72 NP4    5f0        0.0000    0.0000   -0.0000   -0.0000   -0.0000   -0.0000    0.0000   -0.0000   -0.0000    0.0000
   73 NP4    4f1+      -0.0000    0.0000    0.0000   -0.0000   -0.0000   -0.0000   -0.0000   -0.0000   -0.0000   -0.0000
   74 NP4    5f1+       0.0000   -0.0000   -0.0000    0.0000   -0.0000   -0.0000    0.0000    0.0000    0.0000    0.0000
   75 NP4    4f2+       0.0000   -0.0000   -0.0000   -0.0000    0.0000    0.0000    0.0000    0.0000   -0.0000   -0.0000
   76 NP4    5f2+      -0.0000    0.0000    0.0000    0.0000    0.0000    0.0000   -0.0000    0.0000   -0.0000    0.0000
   77 NP4    4f3+      -0.0000    0.0000    0.0000   -0.0000   -0.0000   -0.0000    0.0000   -0.0000   -0.0000    0.0000
   78 NP4    5f3+       0.0000   -0.0000   -0.0000   -0.0000   -0.0000   -0.0000   -0.0000   -0.0000    0.0000    0.0000
   79 O5     1s         0.0000    0.0000    0.0000    0.0000    0.0000    0.0000    0.0000   -0.0000   -0.0000   -0.0000
   80 O5     2s         0.0000    0.0000    0.0000    0.0000    0.0000    0.0000    0.0000   -0.0000   -0.0000   -0.0000
   81 O5     2px       -0.0000    0.0000   -0.0000    0.0000    0.0000    0.0000    0.0000    0.0000    0.0000   -0.0000
   82 O5     2py        0.0000   -0.0000    0.0000    0.0000    0.0000   -0.0000    0.0000    0.0000    0.0000    0.0000
   83 O5     2pz        0.0000   -0.0000   -0.0000   -0.0000    0.0000   -0.0000   -0.0000    0.0000    0.0000    0.0000
   84 S6     1s        -0.0000    0.0000   -0.0000    0.0000    0.0009    1.0000   -0.0000   -0.0000    0.0000    0.0000
   85 S6     2s        -0.0000    0.0000   -0.0000    0.0000    0.0000   -0.0000   -0.0000   -0.0000    0.0000    0.0000
   86 S6     3s        -0.0000    0.0000   -0.0000    0.0000    0.0000   -0.0004   -0.0000   -0.0000    0.0000   -0.0000
   87 S6     2px       -0.0000   -0.0000   -0.0000   -0.0000    0.0000    0.0000    0.0000   -0.0000    0.0000    0.0000
   88 S6     3px        0.0000   -0.0000   -0.0000    0.0000    0.0000   -0.0000    0.0000   -0.0000    0.0000    0.0000
   89 S6     2py        0.0000   -0.0000    0.0000   -0.0000    0.0000    0.0001    0.0000   -0.0000   -0.0000    0.0000
   90 S6     3py       -0.0000   -0.0000    0.0000    0.0000    0.0000   -0.0000    0.0000   -0.0000   -0.0000    0.0000
   91 S6     2pz       -0.0000   -0.0000    0.0000    0.0000   -0.0000   -0.0001   -0.0000    0.0000   -0.0000    0.0000
   92 S6     3pz       -0.0000   -0.0000    0.0000    0.0000    0.0000    0.0000   -0.0000   -0.0000    0.0000    0.0000
   93 C7     1s        -0.0000   -0.0000    0.0000    0.0000    0.0000   -0.0000   -0.0000    0.0000    0.0000    0.0000
   94 C7     2s        -0.0000   -0.0000    0.0000    0.0000    0.0000   -0.0000   -0.0000    0.0000    0.0000    0.0000
   95 C7     2px        0.0000    0.0000    0.0000    0.0000    0.0000    0.0000   -0.0000   -0.0000   -0.0000   -0.0000
   96 C7     2py       -0.0000    0.0000   -0.0000    0.0000    0.0000    0.0000   -0.0000   -0.0000    0.0000   -0.0000
   97 C7     2pz       -0.0000   -0.0000    0.0000    0.0000    0.0000    0.0000   -0.0000   -0.0000    0.0000   -0.0000
   98 O8     1s        -0.0000    0.0000   -0.0000    0.0000   -0.0000   -0.0000    0.0000    0.0000   -0.0000    0.0000
   99 O8     2s        -0.0000    0.0000   -0.0000    0.0000   -0.0000   -0.0000    0.0000    0.0000   -0.0000    0.0000
  100 O8     2px        0.0000    0.0000    0.0000   -0.0000   -0.0000    0.0000    0.0000   -0.0000    0.0000    0.0000
  101 O8     2py       -0.0000   -0.0000    0.0000   -0.0000    0.0000    0.0000   -0.0000    0.0000   -0.0000   -0.0000
  102 O8     2pz        0.0000    0.0000   -0.0000    0.0000   -0.0000    0.0000    0.0000    0.0000   -0.0000    0.0000
  103 O9     1s        -0.0000    0.0000   -0.0000    0.0000    0.0000    0.0000    0.0000   -0.0000    0.0000   -0.0000
  104 O9     2s        -0.0000    0.0000   -0.0000    0.0000    0.0000    0.0000    0.0000   -0.0000    0.0000   -0.0000
  105 O9     2px       -0.0000   -0.0000   -0.0000    0.0000    0.0000   -0.0000   -0.0000   -0.0000    0.0000    0.0000
  106 O9     2py        0.0000    0.0000   -0.0000    0.0000    0.0000    0.0000    0.0000    0.0000   -0.0000   -0.0000
  107 O9     2pz       -0.0000   -0.0000    0.0000   -0.0000    0.0000   -0.0000   -0.0000    0.0000   -0.0000    0.0000
  108 O10    1s         0.0000    0.0000   -0.0000   -0.0000   -0.0000    0.0000    0.0000   -0.0000    0.0000    0.0000
  109 O10    2s         0.0000    0.0000   -0.0000   -0.0000   -0.0000    0.0000    0.0000   -0.0000    0.0000    0.0000
  110 O10    2px        0.0000    0.0000    0.0000   -0.0000   -0.0000   -0.0000   -0.0000   -0.0000   -0.0000   -0.0000
  111 O10    2py        0.0000    0.0000   -0.0000   -0.0000   -0.0000   -0.0000   -0.0000   -0.0000    0.0000   -0.0000
  112 O10    2pz        0.0000    0.0000   -0.0000   -0.0000    0.0000   -0.0000   -0.0000   -0.0000    0.0000    0.0000
  113 O11    1s         0.0000    0.0000   -0.0000   -0.0000   -0.0000    0.0000    0.0000    0.0000   -0.0000   -0.0000
  114 O11    2s         0.0000    0.0000   -0.0000   -0.0000   -0.0000    0.0000    0.0000    0.0000    0.0000   -0.0000
  115 O11    2px        0.0000   -0.0000   -0.0000    0.0000   -0.0000   -0.0000    0.0000   -0.0000   -0.0000   -0.0000
  116 O11    2py       -0.0000   -0.0000    0.0000    0.0000   -0.0000   -0.0000    0.0000   -0.0000    0.0000   -0.0000
  117 O11    2pz       -0.0000   -0.0000    0.0000    0.0000   -0.0000    0.0000    0.0000   -0.0000   -0.0000    0.0000
  118 C12    1s         0.0000    0.0000   -0.0000   -0.0000    0.0000    0.0000   -0.0000   -0.0000    0.0000   -0.0000
  119 C12    2s         0.0000    0.0000   -0.0000    0.0000    0.0000   -0.0000    0.0000   -0.0000    0.0000    0.0000
  120 C12    2px        0.0000    0.0000    0.0000    0.0000    0.0000   -0.0000    0.0000   -0.0000   -0.0000   -0.0000
  121 C12    2py       -0.0000    0.0000   -0.0000    0.0000    0.0000   -0.0000    0.0000   -0.0000    0.0000   -0.0000
  122 C12    2pz       -0.0000    0.0000   -0.0000    0.0000    0.0000   -0.0000    0.0000    0.0000   -0.0000   -0.0000
  123 C13    1s         0.0000    0.0000    0.0000    0.0000    0.0000   -0.0000    0.0000    0.0000   -0.0000    0.0000
  124 C13    2s         0.0000   -0.0000    0.0000    0.0000    0.0000   -0.0000    0.0000    0.0000   -0.0000    0.0000
  125 C13    2px       -0.0000   -0.0000    0.0000    0.0000    0.0000   -0.0000    0.0000    0.0000   -0.0000    0.0000
[...]
      5d0      0.0000  0.0000  0.0000  0.0000  0.0000  0.0000  0.0000  0.0000  0.0000  0.0000  0.0000  0.0000
      5d1-     0.0000  0.0000  0.0000  0.0000  0.0000  0.0000  0.0000  0.0000  0.0000  0.0000  0.0000  0.0000
      5d2-     0.0000  0.0000  0.0000  0.0000  0.0000  0.0000  0.0000  0.0000  0.0000  0.0000  0.0000  0.0000
      6px      0.0000  0.0000  0.0000  0.0000  0.0000  0.0000  0.0000  0.0000  0.0000  0.0000  0.0000  0.0000
      6pz      0.0000  0.0000  0.0000  0.0000  0.0000  0.0000  0.0000  0.0000  0.0000  0.0000  0.0000  0.0000
      6py      0.0000  0.0000  0.0000  0.0000  0.0000  0.0000  0.0000  0.0000  0.0000  0.0000  0.0000  0.0000
      7s       0.0000  0.0000  0.0000  0.0000  0.0000  0.0000  0.0000  0.0000  0.0000  0.0000  0.0000  0.0000
      5f3+     0.0000  0.0000  0.0000  0.0000  0.0000  0.0000  0.0000  0.0000  0.0000  0.0000  0.0000  0.0000
      5f2+     0.0000  0.0000  0.0000  0.0000  0.0000  0.0000  0.0000  0.0000  0.0000  0.0000  0.0000  0.0000
      5f1+     0.0000  0.0000  0.0000  0.0000  0.0000  0.0000  0.0000  0.0000  0.0000  0.0000  0.0000  0.0000
      5f0      0.0000  0.0000  0.0000  0.0000  0.0000  0.0000  0.0000  0.0000  0.0000  0.0000  0.0000  0.0000
      5f1-     0.0000  0.0000  0.0000  0.0000  0.0000  0.0000  0.0000  0.0000  0.0000  0.0000  0.0000  0.0000
      5f2-     0.0000  0.0000  0.0000  0.0000  0.0000  0.0000  0.0000  0.0000  0.0000  0.0000  0.0000  0.0000
      5f3-     0.0000  0.0000  0.0000  0.0000  0.0000  0.0000  0.0000  0.0000  0.0000  0.0000  0.0000  0.0000
      6d2+     0.0000  0.0000  0.0000  0.0000  0.0000  0.0000  0.0000  0.0000  0.0000  0.0000  0.0000  0.0000
      6d1+     0.0000  0.0000  0.0000  0.0000  0.0000  0.0000  0.0000  0.0000  0.0000  0.0000  0.0000  0.0000
      6d0      0.0000  0.0000  0.0000  0.0000  0.0000  0.0000  0.0000  0.0000  0.0000  0.0000  0.0000  0.0000
      6d1-     0.0000  0.0000  0.0000  0.0000  0.0000  0.0000  0.0000  0.0000  0.0000  0.0000  0.0000  0.0000
      6d2-     0.0000  0.0000  0.0000  0.0000  0.0000  0.0000  0.0000  0.0000  0.0000  0.0000  0.0000  0.0000
      7px      0.0000  0.0000  0.0000  0.0000  0.0000  0.0000  0.0000  0.0000  0.0000  0.0000  0.0000  0.0000
      7pz      0.0000  0.0000  0.0000  0.0000  0.0000  0.0000  0.0000  0.0000  0.0000  0.0000  0.0000  0.0000
      7py      0.0000  0.0000  0.0000  0.0000  0.0000  0.0000  0.0000  0.0000  0.0000  0.0000  0.0000  0.0000
      Total    6.1769  6.1715  6.1735  6.1542  0.8380  0.8463  0.8458  0.8364  0.7871  6.1688  6.1769  6.1715
 
      N-E     -0.1769 -0.1715 -0.1735 -0.1542  0.1620  0.1537  0.1542  0.1636  0.2129 -0.1688 -0.1769 -0.1715
 
                C25     C26     H27     H28     H29     H30     H31   
      1s       2.0002  2.0002  0.8380  0.8463  0.8458  0.8365  0.7871
      2s       1.1128  1.1219  0.0000  0.0000  0.0000  0.0000  0.0000
      2px      1.0076  0.9789  0.0000  0.0000  0.0000  0.0000  0.0000
      2pz      1.0542  0.9617  0.0000  0.0000  0.0000  0.0000  0.0000
      2py      0.9986  1.0915  0.0000  0.0000  0.0000  0.0000  0.0000
      3s       0.0000  0.0000  0.0000  0.0000  0.0000  0.0000  0.0000
      3px      0.0000  0.0000  0.0000  0.0000  0.0000  0.0000  0.0000
      3pz      0.0000  0.0000  0.0000  0.0000  0.0000  0.0000  0.0000
      3py      0.0000  0.0000  0.0000  0.0000  0.0000  0.0000  0.0000
      4s       0.0000  0.0000  0.0000  0.0000  0.0000  0.0000  0.0000
      3d2+     0.0000  0.0000  0.0000  0.0000  0.0000  0.0000  0.0000
      3d1+     0.0000  0.0000  0.0000  0.0000  0.0000  0.0000  0.0000
      3d0      0.0000  0.0000  0.0000  0.0000  0.0000  0.0000  0.0000
      3d1-     0.0000  0.0000  0.0000  0.0000  0.0000  0.0000  0.0000
      3d2-     0.0000  0.0000  0.0000  0.0000  0.0000  0.0000  0.0000
      4px      0.0000  0.0000  0.0000  0.0000  0.0000  0.0000  0.0000
      4pz      0.0000  0.0000  0.0000  0.0000  0.0000  0.0000  0.0000
      4py      0.0000  0.0000  0.0000  0.0000  0.0000  0.0000  0.0000
      5s       0.0000  0.0000  0.0000  0.0000  0.0000  0.0000  0.0000
      4d2+     0.0000  0.0000  0.0000  0.0000  0.0000  0.0000  0.0000
      4d1+     0.0000  0.0000  0.0000  0.0000  0.0000  0.0000  0.0000
      4d0      0.0000  0.0000  0.0000  0.0000  0.0000  0.0000  0.0000
      4d1-     0.0000  0.0000  0.0000  0.0000  0.0000  0.0000  0.0000
      4d2-     0.0000  0.0000  0.0000  0.0000  0.0000  0.0000  0.0000
      5px      0.0000  0.0000  0.0000  0.0000  0.0000  0.0000  0.0000
      5pz      0.0000  0.0000  0.0000  0.0000  0.0000  0.0000  0.0000
      5py      0.0000  0.0000  0.0000  0.0000  0.0000  0.0000  0.0000
      6s       0.0000  0.0000  0.0000  0.0000  0.0000  0.0000  0.0000
      4f3+     0.0000  0.0000  0.0000  0.0000  0.0000  0.0000  0.0000
      4f2+     0.0000  0.0000  0.0000  0.0000  0.0000  0.0000  0.0000
      4f1+     0.0000  0.0000  0.0000  0.0000  0.0000  0.0000  0.0000
      4f0      0.0000  0.0000  0.0000  0.0000  0.0000  0.0000  0.0000
      4f1-     0.0000  0.0000  0.0000  0.0000  0.0000  0.0000  0.0000
      4f2-     0.0000  0.0000  0.0000  0.0000  0.0000  0.0000  0.0000
      4f3-     0.0000  0.0000  0.0000  0.0000  0.0000  0.0000  0.0000
      5d2+     0.0000  0.0000  0.0000  0.0000  0.0000  0.0000  0.0000
      5d1+     0.0000  0.0000  0.0000  0.0000  0.0000  0.0000  0.0000
      5d0      0.0000  0.0000  0.0000  0.0000  0.0000  0.0000  0.0000
      5d1-     0.0000  0.0000  0.0000  0.0000  0.0000  0.0000  0.0000
      5d2-     0.0000  0.0000  0.0000  0.0000  0.0000  0.0000  0.0000
      6px      0.0000  0.0000  0.0000  0.0000  0.0000  0.0000  0.0000
      6pz      0.0000  0.0000  0.0000  0.0000  0.0000  0.0000  0.0000
      6py      0.0000  0.0000  0.0000  0.0000  0.0000  0.0000  0.0000
      7s       0.0000  0.0000  0.0000  0.0000  0.0000  0.0000  0.0000
      5f3+     0.0000  0.0000  0.0000  0.0000  0.0000  0.0000  0.0000
      5f2+     0.0000  0.0000  0.0000  0.0000  0.0000  0.0000  0.0000
      5f1+     0.0000  0.0000  0.0000  0.0000  0.0000  0.0000  0.0000
      5f0      0.0000  0.0000  0.0000  0.0000  0.0000  0.0000  0.0000
      5f1-     0.0000  0.0000  0.0000  0.0000  0.0000  0.0000  0.0000
      5f2-     0.0000  0.0000  0.0000  0.0000  0.0000  0.0000  0.0000
      5f3-     0.0000  0.0000  0.0000  0.0000  0.0000  0.0000  0.0000
      6d2+     0.0000  0.0000  0.0000  0.0000  0.0000  0.0000  0.0000
      6d1+     0.0000  0.0000  0.0000  0.0000  0.0000  0.0000  0.0000
      6d0      0.0000  0.0000  0.0000  0.0000  0.0000  0.0000  0.0000
      6d1-     0.0000  0.0000  0.0000  0.0000  0.0000  0.0000  0.0000
      6d2-     0.0000  0.0000  0.0000  0.0000  0.0000  0.0000  0.0000
      7px      0.0000  0.0000  0.0000  0.0000  0.0000  0.0000  0.0000
      7pz      0.0000  0.0000  0.0000  0.0000  0.0000  0.0000  0.0000
      7py      0.0000  0.0000  0.0000  0.0000  0.0000  0.0000  0.0000
      Total    6.1735  6.1542  0.8380  0.8463  0.8458  0.8365  0.7871
 
      N-E     -0.1735 -0.1542  0.1620  0.1537  0.1542  0.1635  0.2129
 
      Total electronic charge=  256.000000
 
      Total            charge=   -1.000000
--
 
 

      Expectation values of various properties for root number: 10
      -----------------------------------------------------------
 
 
++    Molecular properties:
      ---------------------
 
      Charge (e):
                      =   -1.0000
      Dipole Moment (Debye):
      Origin of the operator (Ang)=    0.0000    0.0000    0.0000
                   X= -1.1897E-03               Y=  2.5774E-03               Z=  7.9695E-04           Total=  2.9485E-03
      Center of Charge (Ang)
                     X=    0.00024768               Y=   -0.00053660               Z=   -0.00016592
      Quadrupole Moment (Debye*Ang):
      Origin of the operator (Ang)=    0.0004   -0.0001   -0.0001
                  XX= -1.9676E+02              XY=  1.5466E+00              XZ= -7.1421E-01              YY= -1.9441E+02
                  YZ= -1.4606E+00              ZZ= -1.9122E+02
      In traceless form (Debye*Ang)
                  XX= -3.9476E+00              XY=  2.3199E+00              XZ= -1.0713E+00              YY= -4.1828E-01
                  YZ= -2.1909E+00              ZZ=  4.3659E+00
--
 

      LoProp population analysis for root number: 10
      -----------------------------------------------
 
 
++    LoProp analysis:
      ----------------
 
 
 
  Input file to MOLDEN was generated!
 
 
++    Static properties:
      ------------------
 
 
      LoProp Charges per center
 

                   C1       S2       O3       NP4      O5       S6       C7       O8       O9       O10   
      Nuclear      6.0000  16.0000   8.0000  93.0000   8.0000  16.0000   6.0000   8.0000   8.0000   8.0000
      Electronic  -6.1269 -15.0062  -8.8136 -90.5223  -8.8137 -15.0063  -6.1269  -8.8136  -8.8136  -8.9836
 
      Total       -0.1269   0.9938  -0.8136   2.4777  -0.8137   0.9937  -0.1269  -0.8136  -0.8136  -0.9836
 

                   O11      C12      C13      C14      C15      C16      H17      H18      H19      H20   
      Nuclear      8.0000   6.0000   6.0000   6.0000   6.0000   6.0000   1.0000   1.0000   1.0000   1.0000
      Electronic  -8.9836  -6.1123  -6.1200  -6.1125  -6.1120  -6.0972  -0.8962  -0.9027  -0.9024  -0.8959
 
      Total       -0.9836  -0.1123  -0.1200  -0.1125  -0.1120  -0.0972   0.1038   0.0973   0.0976   0.1041
 

                   H21      C22      C23      C24      C25      C26      H27      H28      H29      H30   
      Nuclear      1.0000   6.0000   6.0000   6.0000   6.0000   6.0000   1.0000   1.0000   1.0000   1.0000
      Electronic  -0.8438  -6.1123  -6.1200  -6.1125  -6.1120  -6.0972  -0.8962  -0.9027  -0.9024  -0.8959
 
      Total        0.1562  -0.1123  -0.1200  -0.1125  -0.1120  -0.0972   0.1038   0.0973   0.0976   0.1041
 

                   H31   
      Nuclear      1.0000
      Electronic  -0.8438
 
      Total        0.1562
--
 
 
      Natural Bond Order analysis for root number: 10
 
++    Natural Bond Order analysis
      ---------------------------
      Based on LoProp computed density
      -------------------------------------------------------------------------------------
      Atom A       Atom B       Bond Order | Atom A       Atom B       Bond Order
        C1           C22            1.838  |   S2           O3             0.991
        C1           C26            0.998  |   S2           O8             0.991
        NP4          O10            2.996  |   O5           S6             0.991
        NP4          O11            2.996  |   S6           C7             0.985
        C7           C12            1.838  |   S6           O9             0.991
        C7           C16            0.998  |   C12          C13            1.827
        C13          C14            1.843  |   C12          H17            0.991
        C14          C15            1.830  |   C13          H18            0.992
        C16          H21            1.000  |   C14          H19            0.989
        C23          C24            0.997  |   C15          C16            0.990
        C24          C25            0.997  |   C15          H20            0.992
        C26          H31            1.000  |   C22          C23            0.993
        O3           NP4            0.996  |   C22          H27            0.991
        NP4          O5             0.996  |   C23          H28            0.992
        NP4          O8             0.996  |   C24          H29            0.989
        NP4          O9             0.996  |   C25          C26            0.990
        C1           S2             0.985  |   C25          H30            0.992
      -------------------------------------------------------------------------------------
      NBO located    139.999 core electrons.
      NBO located     32.700 lone pair electrons.
      NBO located     83.962 electrons involved in   34 bonds.
      NBO analysis, and just that ONLY, did not converge to a
      proper answer, sorry. Calculation will continue as normal.
--
 
--
 
 
  Input file to MOLDEN was generated!
 
 
  Input file to MOLDEN was generated!
 
 
  Input file to MOLDEN was generated!
 
 
  Input file to MOLDEN was generated!
 
 
  Input file to MOLDEN was generated!
 
 
  Input file to MOLDEN was generated!
 
 
  Input file to MOLDEN was generated!
 
 
  Input file to MOLDEN was generated!
 
 
  Input file to MOLDEN was generated!
 
 
  Input file to MOLDEN was generated!
 
 
  Input file to MOLDEN was generated!
 
      Average orbitals are written to the RASORB file
      Natural orbitals for root   1 are written to the RASORB.1 file
      Natural orbitals for root   2 are written to the RASORB.2 file
      Natural orbitals for root   3 are written to the RASORB.3 file
      Natural orbitals for root   4 are written to the RASORB.4 file
      Natural orbitals for root   5 are written to the RASORB.5 file
      Natural orbitals for root   6 are written to the RASORB.6 file
      Natural orbitals for root   7 are written to the RASORB.7 file
      Natural orbitals for root   8 are written to the RASORB.8 file
      Natural orbitals for root   9 are written to the RASORB.9 file
      Natural orbitals for root  10 are written to the RASORB.10 file
      Spin density orbitals for root   1 are written to the SPDORB.1 file
      Spin density orbitals for root   2 are written to the SPDORB.2 file
      Spin density orbitals for root   3 are written to the SPDORB.3 file
      Spin density orbitals for root   4 are written to the SPDORB.4 file
      Spin density orbitals for root   5 are written to the SPDORB.5 file
      Spin density orbitals for root   6 are written to the SPDORB.6 file
      Spin density orbitals for root   7 are written to the SPDORB.7 file
      Spin density orbitals for root   8 are written to the SPDORB.8 file
      Spin density orbitals for root   9 are written to the SPDORB.9 file
      Spin density orbitals for root  10 are written to the SPDORB.10 file
 
 ###############################################################################
 ###############################################################################
 ###                                                                         ###
 ###                                                                         ###
 ###    RunFile label Unique Atom Name                                       ###
 ###    was used       42 times                                              ###
 ###                                                                         ###
 ###                                                                         ###
 ###############################################################################
 ###############################################################################
 ###############################################################################
 ###############################################################################
 ###                                                                         ###
 ###                                                                         ###
 ###    RunFile label BirthCertificate                                       ###
 ###    was used       69 times                                              ###
 ###                                                                         ###
 ###                                                                         ###
 ###############################################################################
 ###############################################################################
 ###############################################################################
 ###############################################################################
 ###                                                                         ###
 ###                                                                         ###
 ###    RunFile label Unique Coordinat                                       ###
 ###    was used       52 times                                              ###
 ###                                                                         ###
 ###                                                                         ###
 ###############################################################################
 ###############################################################################
 ###############################################################################
 ###############################################################################
 ###                                                                         ###
 ###                                                                         ###
 ###    RunFile label nBas                                                   ###
 ###    was used       79 times                                              ###
 ###                                                                         ###
 ###                                                                         ###
 ###############################################################################
 ###############################################################################
--- Stop Module: rasscf at Mon Nov 19 15:08:36 2018 /rc=_RC_ALL_IS_WELL_ ---
*** files: NpO2_C6H5SO2_C6H5SO2-m1-triplet.casscf.MB.LprOrb NpO2_C6H5SO2_C6H5SO2-m1-triplet.casscf.MB.rasscf.molden NpO2_C6H5SO2_C6H5SO2-m1-triplet.casscf.MB.rasscf.molden.6
           NpO2_C6H5SO2_C6H5SO2-m1-triplet.casscf.MB.rasscf.molden.1 NpO2_C6H5SO2_C6H5SO2-m1-triplet.casscf.MB.rasscf.molden.2
           NpO2_C6H5SO2_C6H5SO2-m1-triplet.casscf.MB.rasscf.molden.10 NpO2_C6H5SO2_C6H5SO2-m1-triplet.casscf.MB.rasscf.molden.5
           NpO2_C6H5SO2_C6H5SO2-m1-triplet.casscf.MB.rasscf.molden.9 NpO2_C6H5SO2_C6H5SO2-m1-triplet.casscf.MB.rasscf.molden.7
           NpO2_C6H5SO2_C6H5SO2-m1-triplet.casscf.MB.rasscf.molden.4 NpO2_C6H5SO2_C6H5SO2-m1-triplet.casscf.MB.rasscf.molden.3
           NpO2_C6H5SO2_C6H5SO2-m1-triplet.casscf.MB.rasscf.molden.8 NpO2_C6H5SO2_C6H5SO2-m1-triplet.casscf.MB.LoProp.molden NpO2_C6H5SO2_C6H5SO2-m1-triplet.casscf.MB.RasOrb.5
           NpO2_C6H5SO2_C6H5SO2-m1-triplet.casscf.MB.RasOrb.3 NpO2_C6H5SO2_C6H5SO2-m1-triplet.casscf.MB.RasOrb.6 NpO2_C6H5SO2_C6H5SO2-m1-triplet.casscf.MB.RasOrb
           NpO2_C6H5SO2_C6H5SO2-m1-triplet.casscf.MB.RasOrb.10 NpO2_C6H5SO2_C6H5SO2-m1-triplet.casscf.MB.RasOrb.9 NpO2_C6H5SO2_C6H5SO2-m1-triplet.casscf.MB.RasOrb.2
           NpO2_C6H5SO2_C6H5SO2-m1-triplet.casscf.MB.RasOrb.8 NpO2_C6H5SO2_C6H5SO2-m1-triplet.casscf.MB.RasOrb.1 NpO2_C6H5SO2_C6H5SO2-m1-triplet.casscf.MB.RasOrb.7
           NpO2_C6H5SO2_C6H5SO2-m1-triplet.casscf.MB.RasOrb.4 NpO2_C6H5SO2_C6H5SO2-m1-triplet.casscf.MB.rasscf.h5 NpO2_C6H5SO2_C6H5SO2-m1-triplet.casscf.MB.SpdOrb.2
           NpO2_C6H5SO2_C6H5SO2-m1-triplet.casscf.MB.SpdOrb.10 NpO2_C6H5SO2_C6H5SO2-m1-triplet.casscf.MB.SpdOrb.6 NpO2_C6H5SO2_C6H5SO2-m1-triplet.casscf.MB.SpdOrb.7
           NpO2_C6H5SO2_C6H5SO2-m1-triplet.casscf.MB.SpdOrb.9 NpO2_C6H5SO2_C6H5SO2-m1-triplet.casscf.MB.SpdOrb.8 NpO2_C6H5SO2_C6H5SO2-m1-triplet.casscf.MB.SpdOrb.3
           NpO2_C6H5SO2_C6H5SO2-m1-triplet.casscf.MB.SpdOrb.4 NpO2_C6H5SO2_C6H5SO2-m1-triplet.casscf.MB.SpdOrb.5 NpO2_C6H5SO2_C6H5SO2-m1-triplet.casscf.MB.SpdOrb.1 xmldump
    saved to directory /home/vallet/John-methylsulfonyl/NpO2_C6H5SO2_C6H5SO2-m1/geom-triplet/optg-freq-pbe0/gaussian/SO-XMS
--- Module rasscf spent 2 minutes 15 seconds ---

>>> COPY NpO2_C6H5SO2_C6H5SO2-m1-triplet.casscf.MB.RasOrb /home/vallet/John-methylsulfonyl/NpO2_C6H5SO2_C6H5SO2-m1/geom-triplet/optg-freq-pbe0/gaussian/SO-XMS/NpO2_C6H5SO2_C6H5SO2-m1-triplet.casscf.MB.RasOrb_singlets

>>> COPY NpO2_C6H5SO2_C6H5SO2-m1-triplet.casscf.MB.rasscf.molden /home/vallet/John-methylsulfonyl/NpO2_C6H5SO2_C6H5SO2-m1/geom-triplet/optg-freq-pbe0/gaussian/SO-XMS/NpO2_C6H5SO2_C6H5SO2-m1-triplet.casscf.MB.rasscf_singlets.molden

    Timing: Wall=624.10 User=4356.90 System=135.36
