   This run of MOLCAS is using the pymolcas driver

                             OPE
                             OPE          NMOL  CASOP  ENMOLC A   SO
                 OPE        NMOLC        AS  OP EN  MO LC     AS  OP
                OPENM       OL CA        SO  PE NM  OL CA     SOP EN
                OP EN      MO   LC       AS  OP ENMOL  CASO   PENMOL
                OP  EN     MO   LC       AS  OP EN     MO     LC ASO
               OP   E  NMOL  C  AS       OP  EN MO     LC     AS  OP
               OP  E   NMO   LC AS        OPEN  MO     LCASOP EN   M
               O  PEN   MO  LCA  SO
            OPE   NMO   L   CAS    OP
        OPENMOL  CASOP     ENMOL   CASOPE
     OPENMOLCA   SOPENMOLCASOPEN   MOLCASOPE
    OPENMOLCAS   OP           EN   MOL    CAS
    OPENMOLCAS       OP  ENM        O     LCA
    OPENMOLCAS    OPEN  MOLCASO     P  E  NMO
    OPENMOLCAS     OP               E  N  MOL
    OPENMOLCA   SO           PENM   O  L  CAS    OPEN    MO    LCAS
    OPENMOLCA   SOP           ENM   O  L  CAS   OP  EN  MOLC  AS   O
    OPENMOLCA   SOPE           NM      O  LCA   S      OP  EN MO
    OPENMOLC                AS         O  PEN   M      OL  CA  SOPE
    OPENMO        LCASOPE  NMOL        C  ASO   P      ENMOLC     AS
    OPE     NMO      LCA  SO     P     E   NM   OL  CA SO  PE N   MO
          OPENMOLCA            SOPE   NMO        LCAS  O    P  ENMO
     OPENMOLCASOPENMOLCASOPENMOLCASOPENMOLCA
        OPENMOLCASOPENMOLCASOPENMOLCASOPE
            OPENMOLCASOPENMOLCASOPENM
               OPENMOLCASOPENMOLCA        version: 18.09
                   OPENMOLCASO
                       OPE                tag: 50-g6d6e5e5-dirty

 OpenMolcas is free software; you can redistribute it and/or modify it
 under the terms of the GNU Lesser General Public License version 2.1.
 OpenMolcas is distributed in the hope that it will be useful, but it
 is provided "as is" and without any express or implied warranties.
 For more details see the full text of the license in the file
 LICENSE or in <http://www.gnu.org/licenses/>.

                 Copyright (C) The OpenMolcas Authors
           For the author list and the recommended citation,
                   consult the file CONTRIBUTORS.md

           *************************************************
           * pymolcas version py2.04                       *
           *   build 3b3f1139d1f9af0cd96dc01c0ce9d5c0      *
           *   (after the EMIL interpreter by V. Veryazov) *
           *************************************************

configuration info
------------------
C Compiler ID: Intel
C flags: -std=gnu99 -qopenmp
Fortran Compiler ID: Intel
Fortran flags: -fpp -i8 -r8 -heap-arrays -qopenmp
Definitions: _MOLCAS_;_I8_;_LINUX_;_MKL_;_FDE_
Parallel: OFF (GA=OFF)


   ---------------------------------------------------------------------------------------------------------------------------------
  |
  |           Project: NpO2_C6H5SO2_C6H5SO2-m1-triplet.rassi-SO-casscf-xmscaspt2.VTZP
  |    Submitted from: /home/vallet/John-methylsulfonyl/NpO2_C6H5SO2_C6H5SO2-m1/geom-triplet/optg-freq-pbe0/gaussian/SO-XMS
  |      Scratch area: /state/partition2/vallet/499301.phlam-s-sakura/NpO2_C6H5SO2_C6H5SO2-m1-triplet.rassi-SO-casscf-xmscaspt2.VTZP
  |   Save outputs to: /home/vallet/John-methylsulfonyl/NpO2_C6H5SO2_C6H5SO2-m1/geom-triplet/optg-freq-pbe0/gaussian/SO-XMS
  |            Molcas: /home/pcmt/OpenMolcas/OpenMolcas-20181005
  |
  | Scratch area is empty
  |
  |    MOLCAS_DRIVER = /home/pcmt/OpenMolcas/OpenMolcas-20181005/sbin/pymolcas
  |   MOLCAS_LICENSE = /home/pcmt/molcas/license
  |    MOLCAS_MOLDEN = ON
  |    MOLCAS_NPROCS = 1
  |    MOLCAS_SOURCE = /home/pcmt/OpenMolcas/OpenMolcas-20181005
  | MOLCAS_STRUCTURE = 0
  |
   ---------------------------------------------------------------------------------------------------------------------------------

++ ---------   Input file   ---------

&GATEWAY
   COORD=$HomeDir/NpO2_C6H5SO2_C6H5SO2-m1-triplet.pbe0-zaxis.xyz
   BASIS=ANO-RCC-VTZP
   Group=Nosym
   ANGM=0.0 0.0 0.0
   RICD

&SEWARD

>>> COPY $HomeDir/NpO2_C6H5SO2_C6H5SO2-m1-triplet.casscf.MB.RunFile RUNFIL1

>>> COPY $Project.RunFile RUNFIL2

>>> COPY $HomeDir/NpO2_C6H5SO2_C6H5SO2-m1-triplet.casscf.MB.RasOrb_triplets INPORB

&EXPBAS

>>> COPY $Project.ExpOrb $HomeDir/$Project.ExpOrb_triplets

>>> COPY $HomeDir/NpO2_C6H5SO2_C6H5SO2-m1-triplet.casscf.MB.RasOrb_singlets INPORB

&EXPBAS

>>> COPY $Project.ExpOrb $HomeDir/$Project.ExpOrb_singlets

>>> COPY $HomeDir/$Project.ExpOrb_triplets INPORB

&RASSCF
   Spin=3
   Symmetry=1
   Nactel=2 0 0
   Inactive=127
   Ras2=4
   CIRoots=6 6 1
   Lumorb

>>> COPY $Project.JobIph $Project.JobIph_triplets

>>> COPY $Project.RasOrb $Project.RasOrb_triplets

&CASPT2
    IPEA=0.0
    XMUL= ALL
    THRESHOLDS= 1.0D-09 1.0D-07
    MAXITER=150
    CONVERGENCE=1.0D-6
    IMAG=0.1

>>> COPY $Project.JobMix $Project.JobMix_triplets

>>> COPY $HomeDir/$Project.ExpOrb_singlets INPORB

&RASSCF
   Spin=1
   Symmetry=1
   Nactel=2 0 0
   Inactive=127
   Ras2=4
   CIRoots=10 10 1
   Lumorb

>>> COPY $Project.JobIph $Project.JobIph_singlets

&CASPT2
    IPEA=0.0
    XMUL= ALL
    THRESHOLDS= 1.0D-09 1.0D-07
    MAXITER=150
    CONVERGENCE=1.0D-6
    IMAG=0.1

>>> COPY $Project.JobMix $Project.JobMix_singlets

>>> COPY $Project.JobIph_triplets JOB001

>>> COPY $Project.JobIph_singlets JOB002

&RASSI
    EJob
    SPINorbit

>>> COPY $Project.JobMix_triplets JOB001

>>> COPY $Project.JobMix_singlets JOB002

&RASSI
    EJob
    SPINorbit

-- ----------------------------------

--- Start Module: gateway at Mon Nov 19 15:09:01 2018 ---
 
()()()()()()()()()()()()()()()()()()()()()()()()()()()()()()()()()()()()()()()()()()()()()()()()()()

                                              &GATEWAY

                                   only a single process is used
                       available to each process: 49 GB of memory, 8 threads
()()()()()()()()()()()()()()()()()()()()()()()()()()()()()()()()()()()()()()()()()()()()()()()()()()
 
 
++    Symmetry information:
      ---------------------
 
                    Character Table for C1 
 
                             E  
                    a        1  x, y, xy, Rz, z, xz, Ry, yz, Rx, I
--
 
 
++    Basis set information:
      ----------------------
 
 
      Basis set label: C.ANO-RCC...4S3P2D1F.
 
      Electronic valence basis set:
      ------------------
      Associated Effective Charge   6.000000 au
      Associated Actual Charge      6.000000 au
      Nuclear Model: Point charge
 
      Shell  nPrim  nBasis  Cartesian Spherical Contaminant
         s      14       4        X                  
         p       9       3        X                  
         d       4       2                 X         
         f       3       1                 X         
 
 
      Basis set label: S.ANO-RCC...5S4P2D1F.
 
      Electronic valence basis set:
      ------------------
      Associated Effective Charge  16.000000 au
      Associated Actual Charge     16.000000 au
      Nuclear Model: Point charge
 
      Shell  nPrim  nBasis  Cartesian Spherical Contaminant
         s      17       5        X                  
         p      12       4        X                  
         d       5       2                 X         
         f       4       1                 X         
 
 
      Basis set label: O.ANO-RCC...4S3P2D1F.
 
      Electronic valence basis set:
      ------------------
      Associated Effective Charge   8.000000 au
      Associated Actual Charge      8.000000 au
      Nuclear Model: Point charge
 
      Shell  nPrim  nBasis  Cartesian Spherical Contaminant
         s      14       4        X                  
         p       9       3        X                  
         d       4       2                 X         
         f       3       1                 X         
 
 
      Basis set label: NP.ANO-RCC...9S8P6D4F2G1H.
 
      Electronic valence basis set:
      ------------------
      Associated Effective Charge  93.000000 au
      Associated Actual Charge     93.000000 au
      Nuclear Model: Point charge
 
      Shell  nPrim  nBasis  Cartesian Spherical Contaminant
         s      26       9        X                  
         p      23       8        X                  
         d      17       6                 X         
         f      13       4                 X         
         g       5       2                 X         
         h       3       1                 X         
 
 
      Basis set label: O.ANO-RCC...4S3P2D1F.
 
      Electronic valence basis set:
      ------------------
      Associated Effective Charge   8.000000 au
      Associated Actual Charge      8.000000 au
      Nuclear Model: Point charge
 
      Shell  nPrim  nBasis  Cartesian Spherical Contaminant
         s      14       4        X                  
         p       9       3        X                  
         d       4       2                 X         
         f       3       1                 X         
 
 
      Basis set label: S.ANO-RCC...5S4P2D1F.
 
      Electronic valence basis set:
      ------------------
      Associated Effective Charge  16.000000 au
      Associated Actual Charge     16.000000 au
      Nuclear Model: Point charge
 
      Shell  nPrim  nBasis  Cartesian Spherical Contaminant
         s      17       5        X                  
         p      12       4        X                  
         d       5       2                 X         
         f       4       1                 X         
 
 
      Basis set label: C.ANO-RCC...4S3P2D1F.
 
      Electronic valence basis set:
      ------------------
      Associated Effective Charge   6.000000 au
      Associated Actual Charge      6.000000 au
      Nuclear Model: Point charge
 
      Shell  nPrim  nBasis  Cartesian Spherical Contaminant
         s      14       4        X                  
         p       9       3        X                  
         d       4       2                 X         
         f       3       1                 X         
 
 
      Basis set label: O.ANO-RCC...4S3P2D1F.
 
      Electronic valence basis set:
      ------------------
      Associated Effective Charge   8.000000 au
      Associated Actual Charge      8.000000 au
      Nuclear Model: Point charge
 
      Shell  nPrim  nBasis  Cartesian Spherical Contaminant
         s      14       4        X                  
         p       9       3        X                  
         d       4       2                 X         
         f       3       1                 X         
 
 
      Basis set label: C.ANO-RCC...4S3P2D1F.
 
      Electronic valence basis set:
      ------------------
      Associated Effective Charge   6.000000 au
      Associated Actual Charge      6.000000 au
      Nuclear Model: Point charge
 
      Shell  nPrim  nBasis  Cartesian Spherical Contaminant
         s      14       4        X                  
         p       9       3        X                  
         d       4       2                 X         
         f       3       1                 X         
 
 
      Basis set label: H.ANO-RCC...3S2P1D.
 
      Electronic valence basis set:
      ------------------
      Associated Effective Charge   1.000000 au
      Associated Actual Charge      1.000000 au
      Nuclear Model: Point charge
 
      Shell  nPrim  nBasis  Cartesian Spherical Contaminant
         s       8       3        X                  
         p       4       2        X                  
         d       3       1                 X         
 
 
      Basis set label: C.ANO-RCC...4S3P2D1F.
 
      Electronic valence basis set:
      ------------------
      Associated Effective Charge   6.000000 au
      Associated Actual Charge      6.000000 au
      Nuclear Model: Point charge
 
      Shell  nPrim  nBasis  Cartesian Spherical Contaminant
         s      14       4        X                  
         p       9       3        X                  
         d       4       2                 X         
         f       3       1                 X         
 
 
      Basis set label: H.ANO-RCC...3S2P1D.
 
      Electronic valence basis set:
      ------------------
      Associated Effective Charge   1.000000 au
      Associated Actual Charge      1.000000 au
      Nuclear Model: Point charge
 
      Shell  nPrim  nBasis  Cartesian Spherical Contaminant
         s       8       3        X                  
         p       4       2        X                  
         d       3       1                 X         
--
 
 
++    Molecular structure info:
      -------------------------
 
                    ************************************************ 
                    **** Cartesian Coordinates / Bohr, Angstrom **** 
                    ************************************************ 
 
     Center  Label                x              y              z                     x              y              z
        1      C1               3.311103       6.659981       2.896138              1.752160       3.524310       1.532570
        2      S2               2.623469       5.278629      -0.170793              1.388280       2.793330      -0.090380
        3      O3               3.920464       2.698982      -0.000435              2.074620       1.428240      -0.000230
        4      NP4              0.000000       0.000000       0.000000              0.000000       0.000000       0.000000
        5      O5              -3.919424      -2.700589       0.000378             -2.074070      -1.429090       0.000200
        6      S6              -2.621712      -5.279895       0.170189             -1.387350      -2.794000       0.090060
        7      C7              -3.308268      -6.660755      -2.897196             -1.750660      -3.524720      -1.533130
        8      O8              -0.215845       4.754664       0.000813             -0.114220       2.516060       0.000430
        9      O9               0.217470      -4.754967      -0.001228              0.115080      -2.516220      -0.000650
       10      O10             -0.000246       0.000113      -3.347083             -0.000130       0.000060      -1.771200
       11      O11              0.000000       0.000000       3.347045              0.000000       0.000000       1.771180
       12      C12             -4.469864      -9.003279      -2.960388             -2.365350      -4.764330      -1.566570
       13      C13             -5.025122     -10.121562      -5.271939             -2.659180      -5.356100      -2.789790
       14      C14             -4.409468      -8.878878      -7.494219             -2.333390      -4.698500      -3.965770
       15      C15             -3.241542      -6.523637      -7.410107             -1.715350      -3.452160      -3.921260
       16      C16             -2.683165      -5.398683      -5.113259             -1.419870      -2.856860      -2.705820
       17      H17             -4.937401      -9.947386      -1.200335             -2.612760      -5.263930      -0.635190
       18      H18             -5.935063     -11.956392      -5.334905             -3.140700      -6.327050      -2.823110
       19      H19             -4.838549      -9.743258      -9.301893             -2.560450      -5.155910      -4.922350
       20      H20             -2.763441      -5.558611      -9.153191             -1.462350      -2.941490      -4.843660
       21      H21             -1.773168      -3.563022      -5.007925             -0.938320      -1.885470      -2.650080
       22      C22              4.474456       9.001673       2.958083              2.367780       4.763480       1.565350
       23      C23              5.031358      10.120466       5.268953              2.662480       5.355520       2.788210
       24      C24              4.415610       8.879124       7.491952              2.336640       4.698630       3.964570
       25      C25              3.245794       6.524790       7.409125              1.717600       3.452770       3.920740
       26      C26              2.685717       5.399288       5.112919              1.421220       2.857180       2.705640
       27      H27              4.942068       9.944722       1.197482              2.615230       5.262520       0.633680
       28      H28              5.942641      11.954691       5.330842              3.144710       6.326150       2.820960
       29      H29              4.846089       9.743806       9.299153              2.564440       5.156200       4.920900
       30      H30              2.767636       5.560765       9.152756              1.464570       2.942630       4.843430
       31      H31              1.774226       3.564288       5.009135              0.938880       1.886140       2.650720
 
                    ************************************************* 
                    **** InterNuclear Distances / Bohr, Angstrom **** 
                    ************************************************* 
 
     Atom centers         Bohr        Angstrom
   20 H20      15 C15     2.048950        1.084258
   30 H30      25 C25   
   18 H18      13 C13     2.049038        1.084304
   28 H28      23 C23   
   19 H19      14 C14     2.049134        1.084355
   29 H29      24 C24   
   17 H17      12 C12     2.051272        1.085486
   27 H27      22 C22   
   21 H21      16 C16     2.051538        1.085627
   31 H31      26 C26   
   12 C12       7 C7      2.615476        1.384050
   22 C22       1 C1    
   16 C16      15 C15     2.617789        1.385274
   26 C26      25 C25     2.617824        1.385293
   14 C14      13 C13     2.619503        1.386181
   24 C24      23 C23   
   16 C16       7 C7      2.625741        1.389482
   26 C26       1 C1    
   23 C23      22 C22     2.627158        1.390232
   13 C13      12 C12     2.627192        1.390250
   15 C15      14 C14     2.630251        1.391869
   25 C25      24 C24   
    6 S6        5 O5      2.892350        1.530566
    8 O8        2 S2    
    3 O3        2 S2      2.892368        1.530575
    9 O9        6 S6    
   11 O11       4 NP4     3.347045        1.771180
   10 O10       4 NP4     3.347083        1.771200
    2 S2        1 C1      3.433218        1.816781
    7 C7        6 S6    
   27 H27       1 C1      4.041659        2.138754
   17 H17       7 C7      4.041701        2.138776
   20 H20      16 C16     4.043893        2.139936
   30 H30      26 C26   
   21 H21       7 C7      4.050638        2.143505
   31 H31       1 C1      4.050933        2.143662
   19 H19      13 C13     4.051969        2.144210
   29 H29      23 C23     4.052001        2.144226
   18 H18      14 C14     4.057236        2.146997
   28 H28      24 C24     4.057257        2.147008
   30 H30      24 C24     4.060246        2.148590
   20 H20      14 C14     4.060267        2.148601
   19 H19      15 C15     4.061431        2.149217
   29 H29      25 C25   
   28 H28      22 C22     4.062742        2.149910
   18 H18      12 C12     4.062759        2.149920
   27 H27      23 C23     4.076241        2.157054
   17 H17      13 C13     4.076272        2.157070
   31 H31      25 C25     4.085344        2.161871
   21 H21      15 C15     4.085565        2.161988
   21 H21      10 O10     4.312492        2.282072
   31 H31      11 O11     4.314461        2.283114
   15 C15       7 C7      4.515484        2.389491
   25 C25       1 C1    
   13 C13       7 C7      4.534774        2.399699
   23 C23       1 C1      4.534809        2.399718
   24 C24      22 C22     4.535906        2.400298
   14 C14      12 C12     4.535939        2.400316
   25 C25      23 C23     4.549446        2.407463
   15 C15      13 C13     4.549504        2.407494
   16 C16      14 C14     4.556408        2.411147
   26 C26      24 C24     4.556489        2.411190
   26 C26      22 C22     4.562903        2.414584
   16 C16      12 C12     4.562922        2.414594
    9 O9        5 O5      4.618914        2.444224
    8 O8        3 O3      4.618969        2.444253
   19 H19      18 H18     4.673040        2.472866
   29 H29      28 H28     4.673108        2.472902
   30 H30      29 H29     4.673246        2.472975
   20 H20      19 H19     4.673271        2.472988
   28 H28      27 H27     4.703806        2.489147
   18 H18      17 H17     4.703839        2.489164
   31 H31      30 H30     4.705569        2.490080
   21 H21      20 H20     4.705979        2.490297
    8 O8        4 NP4     4.759561        2.518651
    4 NP4       3 O3      4.759679        2.518713
    5 O5        4 NP4     4.759734        2.518743
    9 O9        4 NP4     4.759937        2.518850
    9 O9        7 C7      4.944642        2.616592
    3 O3        1 C1      4.944791        2.616671
    7 C7        5 O5      4.944933        2.616746
    8 O8        1 C1      4.944946        2.616753
   22 C22       2 S2      5.203564        2.753607
   12 C12       6 S6      5.203822        2.753744
   14 C14       7 C7      5.221622        2.763163
   24 C24       1 C1      5.221689        2.763199
   25 C25      22 C22     5.239879        2.772825
   15 C15      12 C12     5.239981        2.772878
   16 C16      13 C13     5.274043        2.790903
   26 C26      23 C23     5.274079        2.790922
   16 C16       6 S6      5.285140        2.796776
   26 C26       2 S2      5.285456        2.796943
   27 H27       2 S2      5.387068        2.850714
   17 H17       6 S6      5.387599        2.850995
   21 H21       5 O5      5.516639        2.919280
   21 H21       9 O9      5.518187        2.920099
   31 H31       3 O3      5.518231        2.920122
   31 H31       8 O8      5.519118        2.920592
   21 H21       6 S6      5.520919        2.921544
   31 H31       2 S2      5.521941        2.922085
--
 
 
            Nuclear Potential Energy           4002.08888867 au
 
--- Stop Module: gateway at Mon Nov 19 15:11:08 2018 /rc=_RC_ALL_IS_WELL_ ---
*** files: NpO2_C6H5SO2_C6H5SO2-m1-triplet.rassi-SO-casscf-xmscaspt2.VTZP.RICDLib xmldump
    saved to directory /home/vallet/John-methylsulfonyl/NpO2_C6H5SO2_C6H5SO2-m1/geom-triplet/optg-freq-pbe0/gaussian/SO-XMS
--- Module gateway spent 2 minutes 6 seconds ---

--- Start Module: seward at Mon Nov 19 15:11:08 2018 ---
 
()()()()()()()()()()()()()()()()()()()()()()()()()()()()()()()()()()()()()()()()()()()()()()()()()()

                                              &SEWARD

                                   only a single process is used
                       available to each process: 49 GB of memory, 8 threads
()()()()()()()()()()()()()()()()()()()()()()()()()()()()()()()()()()()()()()()()()()()()()()()()()()
 
               SEWARD will generate:
                  Multipole Moment integrals up to order  2
                  Kinetic Energy integrals
                  Nuclear Attraction integrals (point charge)
                  One-Electron Hamiltonian integrals
                  Velocity integrals
                  Relativistic Douglas-Kroll-Hess integrals:
                    - Parametrization         : EXP
                    - DKH order of Hamiltonian: 2
                    - DKH order of Properties : 0
                         - multipole moment operators
                         - electric potential operators
                         - contact operators
                  Orbital angular momentum around ( 0.0000  0.0000  0.0000 )
                  Atomic mean-field integrals
                  RI decomposed two-electron repulsion integrals stored Cholesky style
                   - acCD auxiliary basis
                   - CD Threshold:   0.10E-03
 
                   Integrals are discarded if absolute value <: 0.10E-13
                   Integral cutoff threshold is set to       <: 0.10E-15
 
            Nuclear Potential Energy           4002.08888867 au
 
 
      Basis set specifications :
      Symmetry species         a  
      Basis functions          868
 
 
 Post_2Center_RI
 Detected lin. dependences in the auxiliary basis.
 # of AuxBas before l. d. removal:   7196
 # of AuxBas after  l. d. removal:   7183
 
 Sorry, Molden does not know how to handle
 functions with angular momentum larger than g
--- Stop Module: seward at Mon Nov 19 15:42:21 2018 /rc=_RC_ALL_IS_WELL_ ---
*** files: NpO2_C6H5SO2_C6H5SO2-m1-triplet.rassi-SO-casscf-xmscaspt2.VTZP.GssOrb NpO2_C6H5SO2_C6H5SO2-m1-triplet.rassi-SO-casscf-xmscaspt2.VTZP.guessorb.h5 xmldump
    saved to directory /home/vallet/John-methylsulfonyl/NpO2_C6H5SO2_C6H5SO2-m1/geom-triplet/optg-freq-pbe0/gaussian/SO-XMS
--- Module seward spent 31 minutes 13 seconds ---

>>> COPY /home/vallet/John-methylsulfonyl/NpO2_C6H5SO2_C6H5SO2-m1/geom-triplet/optg-freq-pbe0/gaussian/SO-XMS/NpO2_C6H5SO2_C6H5SO2-m1-triplet.casscf.MB.RunFile RUNFIL1

>>> COPY NpO2_C6H5SO2_C6H5SO2-m1-triplet.rassi-SO-casscf-xmscaspt2.VTZP.RunFile RUNFIL2

>>> COPY /home/vallet/John-methylsulfonyl/NpO2_C6H5SO2_C6H5SO2-m1/geom-triplet/optg-freq-pbe0/gaussian/SO-XMS/NpO2_C6H5SO2_C6H5SO2-m1-triplet.casscf.MB.RasOrb_triplets INPORB

--- Start Module: expbas at Mon Nov 19 15:42:29 2018 ---
 
()()()()()()()()()()()()()()()()()()()()()()()()()()()()()()()()()()()()()()()()()()()()()()()()()()

                                              &EXPBAS

                                   only a single process is used
                       available to each process: 49 GB of memory, 8 threads
()()()()()()()()()()()()()()()()()()()()()()()()()()()()()()()()()()()()()()()()()()()()()()()()()()
 

 Header on input orbitals file:
* RASSCF average (pseudo-natural) orbitals

 Information from input runfile
           Number of symmetries    1
      Number of basis functions  177

 Information from expanded basis set runfile
           Number of symmetries    1
      Number of basis functions  868
 New orbitals have been built in file EXPORB
--- Stop Module: expbas at Mon Nov 19 15:42:34 2018 /rc=_RC_ALL_IS_WELL_ ---
*** files: NpO2_C6H5SO2_C6H5SO2-m1-triplet.rassi-SO-casscf-xmscaspt2.VTZP.ExpOrb xmldump
    saved to directory /home/vallet/John-methylsulfonyl/NpO2_C6H5SO2_C6H5SO2-m1/geom-triplet/optg-freq-pbe0/gaussian/SO-XMS
--- Module expbas spent 5 seconds ---

>>> COPY NpO2_C6H5SO2_C6H5SO2-m1-triplet.rassi-SO-casscf-xmscaspt2.VTZP.ExpOrb /home/vallet/John-methylsulfonyl/NpO2_C6H5SO2_C6H5SO2-m1/geom-triplet/optg-freq-pbe0/gaussian/SO-XMS/NpO2_C6H5SO2_C6H5SO2-m1-triplet.rassi-SO-casscf-xmscaspt2.VTZP.ExpOrb_triplets

>>> COPY /home/vallet/John-methylsulfonyl/NpO2_C6H5SO2_C6H5SO2-m1/geom-triplet/optg-freq-pbe0/gaussian/SO-XMS/NpO2_C6H5SO2_C6H5SO2-m1-triplet.casscf.MB.RasOrb_singlets INPORB

--- Start Module: expbas at Mon Nov 19 15:42:35 2018 ---
 
()()()()()()()()()()()()()()()()()()()()()()()()()()()()()()()()()()()()()()()()()()()()()()()()()()

                                              &EXPBAS

                                   only a single process is used
                       available to each process: 49 GB of memory, 8 threads
()()()()()()()()()()()()()()()()()()()()()()()()()()()()()()()()()()()()()()()()()()()()()()()()()()
 

 Header on input orbitals file:
* RASSCF average (pseudo-natural) orbitals

 Information from input runfile
           Number of symmetries    1
      Number of basis functions  177

 Information from expanded basis set runfile
           Number of symmetries    1
      Number of basis functions  868
 New orbitals have been built in file EXPORB
--- Stop Module: expbas at Mon Nov 19 15:42:50 2018 /rc=_RC_ALL_IS_WELL_ ---
*** files: NpO2_C6H5SO2_C6H5SO2-m1-triplet.rassi-SO-casscf-xmscaspt2.VTZP.ExpOrb xmldump
    saved to directory /home/vallet/John-methylsulfonyl/NpO2_C6H5SO2_C6H5SO2-m1/geom-triplet/optg-freq-pbe0/gaussian/SO-XMS
--- Module expbas spent 14 seconds ---

>>> COPY NpO2_C6H5SO2_C6H5SO2-m1-triplet.rassi-SO-casscf-xmscaspt2.VTZP.ExpOrb /home/vallet/John-methylsulfonyl/NpO2_C6H5SO2_C6H5SO2-m1/geom-triplet/optg-freq-pbe0/gaussian/SO-XMS/NpO2_C6H5SO2_C6H5SO2-m1-triplet.rassi-SO-casscf-xmscaspt2.VTZP.ExpOrb_singlets

>>> COPY /home/vallet/John-methylsulfonyl/NpO2_C6H5SO2_C6H5SO2-m1/geom-triplet/optg-freq-pbe0/gaussian/SO-XMS/NpO2_C6H5SO2_C6H5SO2-m1-triplet.rassi-SO-casscf-xmscaspt2.VTZP.ExpOrb_triplets INPORB

--- Start Module: rasscf at Mon Nov 19 15:42:50 2018 ---
 
()()()()()()()()()()()()()()()()()()()()()()()()()()()()()()()()()()()()()()()()()()()()()()()()()()

                                              &RASSCF

                                   only a single process is used
                       available to each process: 49 GB of memory, 8 threads
()()()()()()()()()()()()()()()()()()()()()()()()()()()()()()()()()()()()()()()()()()()()()()()()()()
 
 
      Header of the ONEINT file:
      --------------------------
      
      Integrals generated by seward 4.2.0  , Mon Nov 19 15:11:08 2018
 
 
      OrdInt status: non-squared
 
 
      Cartesian coordinates in Angstrom:
      -----------------------------------------------------
      No.  Label        X            Y            Z        
      -----------------------------------------------------
       1   C1         1.75216000   3.52431000   1.53257000
       2   S2         1.38828000   2.79333000  -0.09038000
       3   O3         2.07462000   1.42824000  -0.00023000
       4   NP4        0.00000000   0.00000000   0.00000000
       5   O5        -2.07407000  -1.42909000   0.00020000
       6   S6        -1.38735000  -2.79400000   0.09006000
       7   C7        -1.75066000  -3.52472000  -1.53313000
       8   O8        -0.11422000   2.51606000   0.00043000
       9   O9         0.11508000  -2.51622000  -0.00065000
      10   O10       -0.00013000   0.00006000  -1.77120000
      11   O11        0.00000000   0.00000000   1.77118000
      12   C12       -2.36535000  -4.76433000  -1.56657000
      13   C13       -2.65918000  -5.35610000  -2.78979000
      14   C14       -2.33339000  -4.69850000  -3.96577000
      15   C15       -1.71535000  -3.45216000  -3.92126000
      16   C16       -1.41987000  -2.85686000  -2.70582000
      17   H17       -2.61276000  -5.26393000  -0.63519000
      18   H18       -3.14070000  -6.32705000  -2.82311000
      19   H19       -2.56045000  -5.15591000  -4.92235000
      20   H20       -1.46235000  -2.94149000  -4.84366000
      21   H21       -0.93832000  -1.88547000  -2.65008000
      22   C22        2.36778000   4.76348000   1.56535000
      23   C23        2.66248000   5.35552000   2.78821000
      24   C24        2.33664000   4.69863000   3.96457000
      25   C25        1.71760000   3.45277000   3.92074000
      26   C26        1.42122000   2.85718000   2.70564000
      27   H27        2.61523000   5.26252000   0.63368000
      28   H28        3.14471000   6.32615000   2.82096000
      29   H29        2.56444000   5.15620000   4.92090000
      30   H30        1.46457000   2.94263000   4.84343000
      31   H31        0.93888000   1.88614000   2.65072000
      -----------------------------------------------------
      Nuclear repulsion energy = 4002.08888867
 
++    Wave function specifications:
      -----------------------------
 
      Number of closed shell electrons         254
      Number of electrons in active shells       2
      Max number of holes in RAS1 space          0
      Max nr of electrons in RAS3 space          0
      Number of inactive orbitals              127
      Number of active orbitals                  4
      Number of secondary orbitals             737
      Spin quantum number                      1.0
      State symmetry                             1
--
 
++    Orbital specifications:
      -----------------------
 
      Symmetry species                           1
                                                 a
      Frozen orbitals                            0
      Inactive orbitals                        127
      Active orbitals                            4
      RAS1 orbitals                              0
      RAS2 orbitals                              4
      RAS3 orbitals                              0
      Secondary orbitals                       737
      Deleted orbitals                           0
      Number of basis functions                868
--
 
++    CI expansion specifications:
      ----------------------------
 
      Number of CSFs                             6
      Number of determinants                     6
      Number of root(s) required                 6
      Root chosen for geometry opt.              6
      CI roots used                              1     2     3     4     5     6
      weights                                0.167 0.167 0.167 0.167 0.167 0.167
      highest root included in the CI            6
      max. size of the explicit Hamiltonian      6
--
 
++    Optimization specifications:
      ----------------------------
 
      RASSCF algorithm: LK RI/DF
      Maximum number of macro iterations       200
      Maximum number of SX iterations          100
      Threshold for RASSCF energy            0.100E-07
      Threshold for max MO rotation          0.100E+00
      Threshold for max BLB element          0.100E-03
      Level shift parameter                  0.500E+00
      Make Quasi-Newton update
--
 
      The MO-coefficients are taken from the file:
      INPORB                                                                                                                          
      Title:Basis set expanded orbital file EXPORB                                         
 
      Total molecular charge   -1.00
 
      ************************************************************************************************************************
      *                                                                                                                      *
      *                                            Wave function control section                                             *
      *                                                                                                                      *
      ************************************************************************************************************************
 
 
                                         RASSCF iterations: Energy and convergence statistics
                                         ----------------------------------------------------
 
      Iter CI   SX   CI       RASSCF       Energy    max ROT     max BLB   max BLB  Level Ln srch  Step   QN   Walltime
          iter iter root      energy       change     param      element    value   shift minimum  type update hh:mm:ss
 Nr of preliminary CI iterations:   1
      Total energies have been shifted. Add               -30000.00 au
        1   1   19    0  -442.83617940    0.00E+00   0.36E-01  116 279 1 -0.21E+00*  0.50   0.00    SX    NO    0:36:06
        2   1   22    0  -444.08802262   -0.13E+01* -0.28E-01  120 265 1 -0.99E-01*  0.49   0.00    SX    NO    0:15:51
        3   1   24    0  -444.44975627   -0.36E+00*  0.26E-01  109 155 1  0.76E-01*  0.47   0.00    SX    NO    0:16:46
        4   1   23    0  -444.55933030   -0.11E+00*  0.17E-01  109 155 1  0.49E-01*  0.47   0.00    SX    NO    0:16:32
        5   1   23    0  -444.59515042   -0.36E-01*  0.19E-01  109 155 1  0.32E-01*  0.47   2.38    LS   YES    0:16:36
        6   1   22    0  -444.61265452   -0.18E-01* -0.10E-01  121 154 1 -0.18E-01*  0.46   1.24    QN   YES    0:17:00
        7   1   21    0  -444.61615810   -0.35E-02*  0.78E-02  121 154 1 -0.87E-02*  0.47   1.28    QN   YES    0:17:58
        8   1   18    0  -444.61746441   -0.13E-02*  0.27E-02  127 149 1  0.25E-02*  0.47   1.18    QN   YES    0:18:17
        9   1   17    0  -444.61771797   -0.25E-03* -0.24E-02  127 149 1  0.11E-02*  0.47   1.27    QN   YES    0:18:56
       10   1   15    0  -444.61776624   -0.48E-04* -0.28E-02  129 137 1 -0.46E-03*  0.47   1.44    QN   YES    0:19:54
       11   1   14    0  -444.61778216   -0.16E-04* -0.30E-02  129 137 1 -0.41E-03*  0.47   1.47    QN   YES    0:21:48
       12   1   14    0  -444.61778935   -0.72E-05* -0.40E-02  129 137 1 -0.35E-03*  0.47   1.77    QN   YES    0:20:39
       13   1   14    0  -444.61779531   -0.60E-05*  0.47E-02  129 137 1 -0.26E-03*  0.47   1.79    QN   YES    0:20:06
       14   1   13    0  -444.61780012   -0.48E-05* -0.39E-02  127 149 1 -0.22E-03*  0.47   1.69    QN   YES    0:19:57
       15   1   13    0  -444.61780314   -0.30E-05* -0.22E-02  119 133 1 -0.19E-03*  0.47   1.57    QN   YES    0:20:06
       16   1   12    0  -444.61780456   -0.14E-05* -0.94E-03  119 133 1 -0.17E-03*  0.47   1.51    QN   YES    0:20:09
       17   1   11    0  -444.61780516   -0.60E-06*  0.42E-03  118 132 1  0.12E-03*  0.47   1.52    QN   YES    0:20:10
       18   1   10    0  -444.61780541   -0.25E-06* -0.25E-03  118 132 1  0.70E-04   0.47   1.53    QN   YES    0:21:00
       19   1   10    0  -444.61780551   -0.10E-06* -0.16E-03  118 132 1  0.33E-04   0.47   1.44    QN   YES    0:21:01
       20   1    9    0  -444.61780554   -0.34E-07* -0.89E-04  124 155 1 -0.15E-04   0.47   1.52    QN   YES    0:21:04
       21   1    8    0  -444.61780556   -0.12E-07*  0.40E-04  127 138 1  0.13E-04   0.47   1.30    QN   YES    0:21:44
       22   1    7    0  -444.61780556   -0.38E-08   0.39E-04  127 138 1  0.74E-05   0.47   1.48    QN   YES    0:21:29
      Convergence after 22 iterations
       23   1    7    0  -444.61780556   -0.14E-08   0.39E-04  128 141 1  0.45E-05   0.47   1.48    QN   YES    0:21:51
 
      ************************************************************************************************************************
                                                      Wave function printout:
                       occupation of active orbitals, and spin coupling of open shells (u,d: Spin up or down)
      ************************************************************************************************************************
 
      Note: transformation to natural orbitals
      has been made, which may change the order of the CSFs.
 
      printout of CI-coefficients larger than  0.05 for root  1
      energy=  -30444.646892
      conf/sym  1111     Coeff  Weight
             1  uu00  -0.36363 0.13223
             2  u0u0   0.60278 0.36334
             3  u00u   0.19241 0.03702
             4  0uu0  -0.08078 0.00653
             5  0u0u   0.53465 0.28585
             6  00uu   0.41837 0.17503
 
      printout of CI-coefficients larger than  0.05 for root  2
      energy=  -30444.646773
      conf/sym  1111     Coeff  Weight
             1  uu00   0.39966 0.15973
             2  u0u0   0.44696 0.19977
             3  u00u  -0.39540 0.15634
             4  0uu0   0.37043 0.13722
             5  0u0u   0.34163 0.11671
             6  00uu  -0.47983 0.23023
 
      printout of CI-coefficients larger than  0.05 for root  3
      energy=  -30444.634508
      conf/sym  1111     Coeff  Weight
             1  uu00  -0.38849 0.15093
             2  u0u0  -0.24419 0.05963
             3  u00u   0.53959 0.29115
             4  0uu0   0.24706 0.06104
             5  0u0u   0.31090 0.09666
             6  00uu  -0.58360 0.34059
 
      printout of CI-coefficients larger than  0.05 for root  4
      energy=  -30444.614711
      conf/sym  1111     Coeff  Weight
             1  uu00   0.46145 0.21294
             2  u0u0  -0.51242 0.26257
             3  u00u   0.09340 0.00872
             4  0uu0   0.16671 0.02779
             5  0u0u   0.58787 0.34560
             6  00uu   0.37733 0.14238
 
      printout of CI-coefficients larger than  0.05 for root  5
      energy=  -30444.608592
      conf/sym  1111     Coeff  Weight
             1  uu00   0.30221 0.09133
             2  u0u0   0.27583 0.07608
             3  u00u   0.54660 0.29877
             4  0uu0   0.57527 0.33093
             5  0u0u  -0.39067 0.15262
             6  00uu   0.22420 0.05026
 
      printout of CI-coefficients larger than  0.05 for root  6
      energy=  -30444.555358
      conf/sym  1111     Coeff  Weight
             1  uu00   0.50284 0.25285
             2  u0u0   0.19646 0.03860
             3  u00u   0.45607 0.20800
             4  0uu0  -0.66068 0.43649
             5  0u0u   0.05061 0.00256
             6  00uu  -0.24799 0.06150
 
      Natural orbitals and occupation numbers for root  1
      sym 1:   0.599742   0.400258   0.599742   0.400258
 
      Natural orbitals and occupation numbers for root  2
      sym 1:   0.405183   0.405183   0.594817   0.594817
 
      Natural orbitals and occupation numbers for root  3
      sym 1:   0.744833   0.255167   0.255167   0.744833
 
      Natural orbitals and occupation numbers for root  4
      sym 1:   0.594817   0.594817   0.405183   0.405183
 
      Natural orbitals and occupation numbers for root  5
      sym 1:   0.400267   0.599733   0.400267   0.599733
 
      Natural orbitals and occupation numbers for root  6
      sym 1:   0.255171   0.744829   0.744829   0.255171
 
      ************************************************************************************************************************
      *                                                                                                                      *
      *                                                    Final results                                                     *
      *                                                                                                                      *
      ************************************************************************************************************************
 
 
++    Wave function specifications:
      -----------------------------
 
      Number of closed shell electrons         254
      Number of electrons in active shells       2
      Max number of holes in RAS1 space          0
      Max nr of electrons in RAS3 space          0
      Number of inactive orbitals              127
      Number of active orbitals                  4
      Number of secondary orbitals             737
      Spin quantum number                      1.0
      State symmetry                             1
--
 
++    Orbital specifications:
      -----------------------
 
      Symmetry species                           1
                                                 a
      Frozen orbitals                            0
      Inactive orbitals                        127
      Active orbitals                            4
      RAS1 orbitals                              0
      RAS2 orbitals                              4
      RAS3 orbitals                              0
      Secondary orbitals                       737
      Deleted orbitals                           0
      Number of basis functions                868
--
 
++    CI expansion specifications:
      ----------------------------
 
      Number of CSFs                             6
      Number of determinants                     6
      Number of root(s) required                 6
      CI roots used                              1     2     3     4     5     6
      weights                                0.167 0.167 0.167 0.167 0.167 0.167
      highest root included in the CI            6
      Root passed to geometry opt.               6
--
 
++    Final optimization conditions:
      ------------------------------
 
      Average CI energy                          -30444.61780556
      RASSCF energy for state  6                 -30444.55535759
      Super-CI energy                                -0.00000000
      RASSCF energy change                           -0.00000000
      Max change in MO coefficients               0.389E-04
      Max non-diagonal density matrix element     0.394E-04
      Maximum BLB matrix element                  0.449E-05
      (orbital pair 128, 141 in symmetry   1)
      Norm of electronic gradient            0.112E+00
--
 
 
      Final state energy(ies):
      ------------------------
 
::    RASSCF root number  1 Total energy: -30444.64689247
::    RASSCF root number  2 Total energy: -30444.64677337
::    RASSCF root number  3 Total energy: -30444.63450750
::    RASSCF root number  4 Total energy: -30444.61471085
::    RASSCF root number  5 Total energy: -30444.60859158
::    RASSCF root number  6 Total energy: -30444.55535759
 
++    Molecular orbitals:
      -------------------
 
      Pseudonatural active orbitals and approximate occupation numbers
 
 
      MOLECULAR ORBITALS FOR SYMMETRY SPECIES 1: a  
 
      INDEX  ENERGY  OCCUPATION COEFFICIENTS ...
          1-4373.1709    2.0000                                                                                                           
                95 NP4    1s     ( 1.0000)
          2 -828.8560    2.0000                                                                                                           
                96 NP4    2s     ( 1.0000)
          3 -693.2024    2.0000                                                                                                           
               120 NP4    2pz    ( 1.0000)
          4 -693.2006    2.0000                                                                                                           
               104 NP4    2px    ( 0.4449) 112 NP4    2py    ( 0.8956)
          5 -693.2003    2.0000                                                                                                           
               104 NP4    2px    ( 0.8956) 112 NP4    2py    (-0.4449)
          6 -213.2860    2.0000                                                                                                           
                97 NP4    3s     ( 1.0000)
          7 -175.0128    2.0000                                                                                                           
               105 NP4    3px    ( 0.4449) 113 NP4    3py    ( 0.8956)
          8 -175.0119    2.0000                                                                                                           
               105 NP4    3px    ( 0.8956) 113 NP4    3py    (-0.4449)
          9 -175.0117    2.0000                                                                                                           
               121 NP4    3pz    ( 1.0000)
         10 -139.3707    2.0000                                                                                                           
               134 NP4    3d1-   ( 0.8954) 146 NP4    3d1+   ( 0.4448)
         11 -139.3703    2.0000                                                                                                           
               134 NP4    3d1-   (-0.4446) 146 NP4    3d1+   ( 0.8951)
         12 -139.3703    2.0000                                                                                                           
               128 NP4    3d2-   (-0.7883) 140 NP4    3d0    ( 0.1456) 152 NP4    3d2+   ( 0.5976)
         13 -139.3702    2.0000                                                                                                           
               128 NP4    3d2-   ( 0.6038) 152 NP4    3d2+   ( 0.7964)
         14 -139.3697    2.0000                                                                                                           
               128 NP4    3d2-   ( 0.1160) 140 NP4    3d0    ( 0.9893)
         15  -92.2703    2.0000                                                                                                           
                31 S2     1s     (-1.0000)
         16  -92.2703    2.0000                                                                                                           
               245 S6     1s     ( 1.0000)
         17  -56.4238    2.0000                                                                                                           
                98 NP4    4s     ( 1.0000)
         18  -43.6542    2.0000                                                                                                           
               106 NP4    4px    ( 0.4449) 114 NP4    4py    ( 0.8956)
         19  -43.6528    2.0000                                                                                                           
               106 NP4    4px    ( 0.8956) 114 NP4    4py    (-0.4449)
         20  -43.6519    2.0000                                                                                                           
               122 NP4    4pz    ( 1.0000)
         21  -29.9987    2.0000                                                                                                           
               129 NP4    4d2-   (-0.3494) 141 NP4    4d0    ( 0.8986) 153 NP4    4d2+   ( 0.2649)
         22  -29.9985    2.0000                                                                                                           
               135 NP4    4d1-   ( 0.8954) 147 NP4    4d1+   ( 0.4448)
         23  -29.9979    2.0000                                                                                                           
               129 NP4    4d2-   ( 0.1106) 135 NP4    4d1-   (-0.4374) 147 NP4    4d1+   ( 0.8804) 153 NP4    4d2+   ( 0.1460)
      
         24  -29.9979    2.0000                                                                                                           
               129 NP4    4d2-   ( 0.5939) 147 NP4    4d1+   (-0.1641) 153 NP4    4d2+   ( 0.7834)
         25  -29.9973    2.0000                                                                                                           
               129 NP4    4d2-   ( 0.7161) 141 NP4    4d0    ( 0.4387) 153 NP4    4d2+   (-0.5429)
         26  -20.4194    2.0000                                                                                                           
                65 O3     1s     (-0.5972) 309 O8     1s     ( 0.8013)
         27  -20.4194    2.0000                                                                                                           
               215 O5     1s     ( 0.8623) 339 O9     1s     (-0.5049)
         28  -20.4194    2.0000                                                                                                           
                65 O3     1s     (-0.8013) 309 O8     1s     (-0.5970)
         29  -20.4194    2.0000                                                                                                           
               215 O5     1s     ( 0.5052) 339 O9     1s     ( 0.8623)
         30  -20.3920    2.0000                                                                                                           
               369 O10    1s     ( 0.4341) 399 O11    1s     ( 0.9006)
         31  -20.3920    2.0000                                                                                                           
               369 O10    1s     (-0.9006) 399 O11    1s     ( 0.4339)
         32  -15.8799    2.0000                                                                                                           
               170 NP4    4f0    ( 0.9954)
         33  -15.8769    2.0000                                                                                                           
               162 NP4    4f2-   ( 0.6041) 178 NP4    4f2+   ( 0.7969)
         34  -15.8765    2.0000                                                                                                           
               162 NP4    4f2-   ( 0.7932) 178 NP4    4f2+   (-0.6013)
         35  -15.8755    2.0000                                                                                                           
               158 NP4    4f3-   ( 0.9808) 182 NP4    4f3+   (-0.1862)
         36  -15.8753    2.0000                                                                                                           
               158 NP4    4f3-   ( 0.1864) 182 NP4    4f3+   ( 0.9818)
         37  -15.8666    2.0000                                                                                                           
               166 NP4    4f1-   ( 0.8950) 174 NP4    4f1+   ( 0.4446)
         38  -15.8661    2.0000                                                                                                           
               166 NP4    4f1-   (-0.4441) 174 NP4    4f1+   ( 0.8941)
         39  -13.1363    2.0000                                                                                                           
                99 NP4    5s     ( 1.0004)
         40  -11.1565    2.0000                                                                                                           
               649 C22    1s     ( 0.2010) 679 C23    1s     ( 0.2728) 709 C24    1s     ( 0.9378)
         41  -11.1565    2.0000                                                                                                           
               429 C12    1s     (-0.2023) 459 C13    1s     (-0.2730) 489 C14    1s     (-0.9374)
         42  -11.1559    2.0000                                                                                                           
                 1 C1     1s     (-0.3485) 649 C22    1s     (-0.8818) 679 C23    1s     (-0.1848) 709 C24    1s     ( 0.2622)
      
         43  -11.1559    2.0000                                                                                                           
               279 C7     1s     ( 0.3464) 429 C12    1s     ( 0.8824) 459 C13    1s     ( 0.1843) 489 C14    1s     (-0.2634)
      
         44  -11.1541    2.0000                                                                                                           
                 1 C1     1s     ( 0.8902) 649 C22    1s     (-0.2432) 679 C23    1s     (-0.3714) 709 C24    1s     ( 0.1075)
      
         45  -11.1541    2.0000                                                                                                           
               279 C7     1s     (-0.8902) 429 C12    1s     ( 0.2406) 459 C13    1s     ( 0.3731) 489 C14    1s     (-0.1077)
      
         46  -11.1535    2.0000                                                                                                           
                 1 C1     1s     (-0.2889) 649 C22    1s     ( 0.3556) 679 C23    1s     (-0.8699) 709 C24    1s     ( 0.1926)
      
         47  -11.1534    2.0000                                                                                                           
               279 C7     1s     (-0.2915) 429 C12    1s     ( 0.3552) 459 C13    1s     (-0.8692) 489 C14    1s     ( 0.1924)
      
         48  -11.1485    2.0000                                                                                                           
               739 C25    1s     (-0.9933) 769 C26    1s     (-0.1009)
         49  -11.1485    2.0000                                                                                                           
               519 C15    1s     (-0.9933) 549 C16    1s     (-0.1006)
         50  -11.1422    2.0000                                                                                                           
               739 C25    1s     (-0.1025) 769 C26    1s     ( 0.9960)
         51  -11.1422    2.0000                                                                                                           
               519 C15    1s     (-0.1022) 549 C16    1s     ( 0.9960)
         52   -9.0496    2.0000                                                                                                           
               123 NP4    5pz    ( 0.9995)
         53   -9.0272    2.0000                                                                                                           
               107 NP4    5px    ( 0.4449) 115 NP4    5py    ( 0.8955)
         54   -9.0248    2.0000                                                                                                           
               107 NP4    5px    ( 0.8955) 115 NP4    5py    (-0.4449)
         55   -9.0105    2.0000                                                                                                           
                32 S2     2s     (-0.9988)
         56   -9.0105    2.0000                                                                                                           
               246 S6     2s     ( 0.9988)
         57   -6.6429    2.0000                                                                                                           
                36 S2     2px    ( 0.3135)  40 S2     2py    ( 0.6312)  44 S2     2pz    ( 0.7100)
         58   -6.6429    2.0000                                                                                                           
               250 S6     2px    ( 0.3110) 254 S6     2py    ( 0.6323) 258 S6     2pz    ( 0.7102)
         59   -6.6428    2.0000                                                                                                           
                36 S2     2px    (-0.8961)  40 S2     2py    ( 0.4450)
         60   -6.6428    2.0000                                                                                                           
               250 S6     2px    ( 0.8970) 254 S6     2py    (-0.4432)
         61   -6.6409    2.0000                                                                                                           
                36 S2     2px    (-0.3156)  40 S2     2py    (-0.6355)  44 S2     2pz    ( 0.7042)
         62   -6.6409    2.0000                                                                                                           
               250 S6     2px    (-0.3156) 254 S6     2py    (-0.6358) 258 S6     2pz    ( 0.7040)
         63   -4.3480    2.0000                                                                                                           
               142 NP4    5d0    ( 0.9974)
         64   -4.3390    2.0000                                                                                                           
               136 NP4    5d1-   ( 0.8953) 148 NP4    5d1+   ( 0.4448)
         65   -4.3387    2.0000                                                                                                           
               136 NP4    5d1-   (-0.4448) 148 NP4    5d1+   ( 0.8952)
         66   -4.3260    2.0000                                                                                                           
               130 NP4    5d2-   ( 0.7963) 154 NP4    5d2+   (-0.6037)
         67   -4.3247    2.0000                                                                                                           
               130 NP4    5d2-   ( 0.6041) 154 NP4    5d2+   ( 0.7968)
         68   -2.1252    2.0000                                                                                                           
               100 NP4    6s     ( 0.9661)
         69   -1.3359    2.0000                                                                                                           
               124 NP4    6pz    ( 0.5460) 370 O10    2s     (-0.4256) 379 O10    2pz    (-0.1270) 400 O11    2s     ( 0.4256)
               409 O11    2pz    (-0.1270)
         70   -1.2833    2.0000                                                                                                           
                33 S2     3s     (-0.2398)  66 O3     2s     (-0.3446) 116 NP4    6py    (-0.1298) 216 O5     2s     ( 0.3435)
               247 S6     3s     ( 0.2389) 310 O8     2s     (-0.3447) 340 O9     2s     ( 0.3434)
         71   -1.2766    2.0000                                                                                                           
                33 S2     3s     (-0.2545)  66 O3     2s     (-0.3444) 216 O5     2s     (-0.3456) 247 S6     3s     (-0.2554)
               310 O8     2s     (-0.3444) 340 O9     2s     (-0.3455)
         72   -1.1698    2.0000                                                                                                           
                37 S2     3px    (-0.1323)  66 O3     2s     (-0.4132) 108 NP4    6px    (-0.1189) 216 O5     2s     ( 0.4101)
               251 S6     3px    (-0.1313) 310 O8     2s     ( 0.4132) 340 O9     2s     (-0.4102)
         73   -1.1664    2.0000                                                                                                           
                37 S2     3px    (-0.1310)  66 O3     2s     (-0.4217) 216 O5     2s     (-0.4247) 251 S6     3px    ( 0.1320)
               310 O8     2s     ( 0.4217) 340 O9     2s     ( 0.4247)
         74   -1.0909    2.0000                                                                                                           
               100 NP4    6s     (-0.2574) 143 NP4    6d0    ( 0.1321) 370 O10    2s     ( 0.6450) 400 O11    2s     ( 0.6450)
      
         75   -1.0703    2.0000                                                                                                           
                 2 C1     2s     (-0.1593) 280 C7     2s     ( 0.1526) 430 C12    2s     ( 0.2328) 460 C13    2s     ( 0.2267)
               490 C14    2s     ( 0.2046) 520 C15    2s     ( 0.2290) 550 C16    2s     ( 0.2135) 650 C22    2s     (-0.2430)
               680 C23    2s     (-0.2368) 710 C24    2s     (-0.2136) 740 C25    2s     (-0.2390) 770 C26    2s     (-0.2232)
      
         76   -1.0698    2.0000                                                                                                           
                 2 C1     2s     ( 0.1551) 280 C7     2s     ( 0.1618) 430 C12    2s     ( 0.2420) 460 C13    2s     ( 0.2389)
               490 C14    2s     ( 0.2165) 520 C15    2s     ( 0.2401) 550 C16    2s     ( 0.2312) 650 C22    2s     ( 0.2319)
               680 C23    2s     ( 0.2290) 710 C24    2s     ( 0.2076) 740 C25    2s     ( 0.2301) 770 C26    2s     ( 0.2218)
      
         77   -0.9994    2.0000                                                                                                           
                33 S2     3s     ( 0.1203) 108 NP4    6px    (-0.4024) 116 NP4    6py    (-0.8098) 247 S6     3s     (-0.1203)
      
         78   -0.9952    2.0000                                                                                                           
               108 NP4    6px    ( 0.8552) 116 NP4    6py    (-0.4249)
         79   -0.9400    2.0000                                                                                                           
                 2 C1     2s     (-0.3045)  33 S2     3s     (-0.1021) 247 S6     3s     (-0.1015) 280 C7     2s     (-0.3021)
               430 C12    2s     (-0.2647) 460 C13    2s     ( 0.1407) 490 C14    2s     ( 0.3796) 520 C15    2s     ( 0.2509)
               550 C16    2s     (-0.1240) 650 C22    2s     (-0.2670) 680 C23    2s     ( 0.1417) 710 C24    2s     ( 0.3828)
               740 C25    2s     ( 0.2530) 770 C26    2s     (-0.1248)
         80   -0.9376    2.0000                                                                                                           
                 2 C1     2s     (-0.2907) 116 NP4    6py    (-0.1746) 280 C7     2s     ( 0.2932) 430 C12    2s     ( 0.2821)
               460 C13    2s     (-0.1186) 490 C14    2s     (-0.3768) 520 C15    2s     (-0.2628) 550 C16    2s     ( 0.1011)
               650 C22    2s     (-0.2799) 680 C23    2s     ( 0.1173) 710 C24    2s     ( 0.3736) 740 C25    2s     ( 0.2608)
      
         81   -0.9309    2.0000                                                                                                           
                 2 C1     2s     ( 0.1057) 430 C12    2s     (-0.2062) 460 C13    2s     (-0.2551) 520 C15    2s     ( 0.2253)
               550 C16    2s     ( 0.2665) 650 C22    2s     (-0.3580) 680 C23    2s     (-0.4611) 740 C25    2s     ( 0.3948)
               770 C26    2s     ( 0.4821)
         82   -0.9309    2.0000                                                                                                           
               280 C7     2s     (-0.1129) 430 C12    2s     ( 0.3480) 460 C13    2s     ( 0.4648) 490 C14    2s     ( 0.1011)
               520 C15    2s     (-0.3870) 550 C16    2s     (-0.4865) 650 C22    2s     (-0.1880) 680 C23    2s     (-0.2619)
               740 C25    2s     ( 0.2113) 770 C26    2s     ( 0.2743)
         83   -0.7848    2.0000                                                                                                           
                 2 C1     2s     (-0.1003)  11 C1     2pz    ( 0.1141)  33 S2     3s     (-0.3532)  66 O3     2s     ( 0.2071)
               216 O5     2s     ( 0.2062) 247 S6     3s     (-0.3518) 289 C7     2pz    (-0.1136) 310 O8     2s     ( 0.2071)
               340 O9     2s     ( 0.2062) 430 C12    2s     ( 0.1456) 490 C14    2s     (-0.2689) 550 C16    2s     ( 0.1790)
               650 C22    2s     ( 0.1461) 710 C24    2s     (-0.2702) 770 C26    2s     ( 0.1799)
         84   -0.7825    2.0000                                                                                                           
                33 S2     3s     ( 0.1401) 124 NP4    6pz    ( 0.6254) 171 NP4    5f0    (-0.1006) 247 S6     3s     (-0.1414)
               370 O10    2s     ( 0.5013) 379 O10    2pz    (-0.1577) 400 O11    2s     (-0.5013) 409 O11    2pz    (-0.1577)
               490 C14    2s     (-0.1247) 710 C24    2s     ( 0.1237)
         85   -0.7789    2.0000                                                                                                           
                 2 C1     2s     (-0.1013)  33 S2     3s     (-0.3005)  66 O3     2s     ( 0.1893) 116 NP4    6py    (-0.1198)
               124 NP4    6pz    ( 0.3241) 216 O5     2s     (-0.1900) 247 S6     3s     ( 0.3017) 280 C7     2s     ( 0.1016)
               310 O8     2s     ( 0.1893) 340 O9     2s     (-0.1900) 370 O10    2s     ( 0.2623) 400 O11    2s     (-0.2624)
               430 C12    2s     (-0.1323) 490 C14    2s     ( 0.2425) 550 C16    2s     (-0.1638) 650 C22    2s     ( 0.1318)
               710 C24    2s     (-0.2417) 770 C26    2s     ( 0.1632)
         86   -0.7424    2.0000                                                                                                           
                 8 C1     2py    ( 0.1246) 286 C7     2py    (-0.1136) 430 C12    2s     ( 0.2701) 460 C13    2s     (-0.2416)
               496 C14    2py    ( 0.1057) 520 C15    2s     ( 0.2739) 550 C16    2s     (-0.2469) 579 H17    1s     ( 0.1067)
               621 H20    1s     ( 0.1021) 650 C22    2s     ( 0.2966) 680 C23    2s     (-0.2652) 716 C24    2py    (-0.1160)
               740 C25    2s     ( 0.3007) 770 C26    2s     (-0.2709) 799 H27    1s     ( 0.1172) 813 H28    1s     (-0.1016)
               841 H30    1s     ( 0.1121)
         87   -0.7423    2.0000                                                                                                           
                 8 C1     2py    (-0.1133) 286 C7     2py    (-0.1245) 430 C12    2s     ( 0.2963) 460 C13    2s     (-0.2645)
               496 C14    2py    ( 0.1159) 520 C15    2s     ( 0.3002) 550 C16    2s     (-0.2706) 579 H17    1s     ( 0.1173)
               593 H18    1s     (-0.1015) 621 H20    1s     ( 0.1120) 650 C22    2s     (-0.2699) 680 C23    2s     ( 0.2408)
               716 C24    2py    ( 0.1055) 740 C25    2s     (-0.2734) 770 C26    2s     ( 0.2464) 799 H27    1s     (-0.1069)
               841 H30    1s     (-0.1020)
         88   -0.6973    2.0000                                                                                                           
                 2 C1     2s     (-0.2333)  11 C1     2pz    (-0.1027)  33 S2     3s     ( 0.3016)  66 O3     2s     (-0.1803)
                72 O3     2py    ( 0.1008) 216 O5     2s     (-0.1784) 247 S6     3s     ( 0.2985) 280 C7     2s     (-0.2311)
               289 C7     2pz    ( 0.1016) 310 O8     2s     (-0.1803) 340 O9     2s     (-0.1784) 436 C12    2py    (-0.1147)
               460 C13    2s     ( 0.1884) 490 C14    2s     (-0.2093) 520 C15    2s     ( 0.1605) 559 C16    2pz    (-0.1036)
               593 H18    1s     ( 0.1107) 656 C22    2py    ( 0.1158) 680 C23    2s     ( 0.1902) 710 C24    2s     (-0.2113)
               740 C25    2s     ( 0.1620) 779 C26    2pz    ( 0.1047) 813 H28    1s     ( 0.1118)
         89   -0.6952    2.0000                                                                                                           
                 2 C1     2s     (-0.2218)  11 C1     2pz    (-0.1062)  33 S2     3s     ( 0.3059)  66 O3     2s     (-0.1931)
               216 O5     2s     ( 0.1949) 247 S6     3s     (-0.3088) 280 C7     2s     ( 0.2241) 289 C7     2pz    (-0.1072)
               310 O8     2s     (-0.1931) 313 O8     2px    ( 0.1016) 340 O9     2s     ( 0.1949) 343 O9     2px    ( 0.1025)
               436 C12    2py    ( 0.1142) 460 C13    2s     (-0.1854) 490 C14    2s     ( 0.2025) 520 C15    2s     (-0.1598)
               559 C16    2pz    ( 0.1018) 593 H18    1s     (-0.1126) 656 C22    2py    ( 0.1130) 680 C23    2s     ( 0.1835)
               710 C24    2s     (-0.2004) 740 C25    2s     ( 0.1581) 779 C26    2pz    ( 0.1008) 813 H28    1s     ( 0.1115)
      
         90   -0.6140    2.0000                                                                                                           
                33 S2     3s     (-0.1431) 247 S6     3s     (-0.1404) 439 C12    2pz    ( 0.1472) 466 C13    2py    (-0.1271)
               499 C14    2pz    (-0.1664) 529 C15    2pz    (-0.1157) 556 C16    2py    ( 0.1259) 579 H17    1s     ( 0.1486)
               593 H18    1s     ( 0.1112) 607 H19    1s     ( 0.1886) 621 H20    1s     ( 0.1029) 635 H21    1s     ( 0.1256)
               659 C22    2pz    (-0.1500) 686 C23    2py    ( 0.1295) 719 C24    2pz    ( 0.1695) 749 C25    2pz    ( 0.1179)
               776 C26    2py    (-0.1282) 799 H27    1s     ( 0.1514) 813 H28    1s     ( 0.1133) 827 H29    1s     ( 0.1923)
               841 H30    1s     ( 0.1048) 855 H31    1s     ( 0.1280)
         91   -0.6132    2.0000                                                                                                           
                33 S2     3s     (-0.1440)  66 O3     2s     ( 0.1016) 216 O5     2s     (-0.1034) 247 S6     3s     ( 0.1466)
               310 O8     2s     ( 0.1017) 340 O9     2s     (-0.1034) 439 C12    2pz    (-0.1502) 466 C13    2py    ( 0.1301)
               499 C14    2pz    ( 0.1703) 529 C15    2pz    ( 0.1178) 556 C16    2py    (-0.1252) 579 H17    1s     (-0.1510)
               593 H18    1s     (-0.1130) 607 H19    1s     (-0.1942) 621 H20    1s     (-0.1025) 635 H21    1s     (-0.1289)
               659 C22    2pz    (-0.1474) 686 C23    2py    ( 0.1276) 719 C24    2pz    ( 0.1671) 749 C25    2pz    ( 0.1156)
               776 C26    2py    (-0.1228) 799 H27    1s     ( 0.1482) 813 H28    1s     ( 0.1109) 827 H29    1s     ( 0.1906)
               841 H30    1s     ( 0.1006) 855 H31    1s     ( 0.1265)
         92   -0.5503    2.0000                                                                                                           
                 2 C1     2s     (-0.1442)  45 S2     3pz    (-0.1723)  75 O3     2pz    (-0.1065) 259 S6     3pz    ( 0.1616)
               280 C7     2s     (-0.1352) 319 O8     2pz    (-0.1065) 430 C12    2s     ( 0.1262) 460 C13    2s     (-0.1464)
               490 C14    2s     ( 0.1478) 520 C15    2s     (-0.1519) 529 C15    2pz    ( 0.1250) 550 C16    2s     ( 0.1675)
               579 H17    1s     ( 0.1494) 593 H18    1s     (-0.1388) 607 H19    1s     ( 0.1256) 621 H20    1s     (-0.1592)
               635 H21    1s     ( 0.1101) 650 C22    2s     ( 0.1345) 659 C22    2pz    (-0.1032) 680 C23    2s     (-0.1560)
               710 C24    2s     ( 0.1576) 740 C25    2s     (-0.1619) 749 C25    2pz    (-0.1337) 770 C26    2s     ( 0.1790)
               799 H27    1s     ( 0.1594) 813 H28    1s     (-0.1481) 827 H29    1s     ( 0.1338) 841 H30    1s     (-0.1699)
               855 H31    1s     ( 0.1170)
         93   -0.5499    2.0000                                                                                                           
                 2 C1     2s     ( 0.1363)  45 S2     3pz    ( 0.1626) 225 O5     2pz    ( 0.1050) 259 S6     3pz    ( 0.1732)
               280 C7     2s     (-0.1453) 349 O9     2pz    ( 0.1051) 430 C12    2s     ( 0.1341) 439 C12    2pz    ( 0.1049)
               460 C13    2s     (-0.1560) 490 C14    2s     ( 0.1592) 520 C15    2s     (-0.1621) 529 C15    2pz    ( 0.1386)
               550 C16    2s     ( 0.1858) 579 H17    1s     ( 0.1613) 593 H18    1s     (-0.1505) 607 H19    1s     ( 0.1320)
               621 H20    1s     (-0.1718) 635 H21    1s     ( 0.1105) 650 C22    2s     (-0.1257) 680 C23    2s     ( 0.1463)
               710 C24    2s     (-0.1494) 740 C25    2s     ( 0.1520) 749 C25    2pz    ( 0.1305) 770 C26    2s     (-0.1747)
               799 H27    1s     (-0.1514) 813 H28    1s     ( 0.1413) 827 H29    1s     (-0.1237) 841 H30    1s     ( 0.1613)
               855 H31    1s     (-0.1032)
         94   -0.5462    2.0000                                                                                                           
                 8 C1     2py    (-0.1802) 286 C7     2py    ( 0.1750) 436 C12    2py    (-0.1743) 439 C12    2pz    (-0.1032)
               469 C13    2pz    ( 0.2145) 496 C14    2py    ( 0.1669) 526 C15    2py    (-0.1698) 559 C16    2pz    ( 0.1949)
               656 C22    2py    ( 0.1797) 659 C22    2pz    ( 0.1059) 689 C23    2pz    (-0.2210) 716 C24    2py    (-0.1717)
               719 C24    2pz    ( 0.1002) 746 C25    2py    ( 0.1749) 779 C26    2pz    (-0.2007)
         95   -0.5456    2.0000                                                                                                           
                 8 C1     2py    (-0.1769) 286 C7     2py    (-0.1822) 289 C7     2pz    ( 0.1019) 436 C12    2py    ( 0.1844)
               439 C12    2pz    ( 0.1034) 469 C13    2pz    (-0.2231) 496 C14    2py    (-0.1714) 499 C14    2pz    ( 0.1058)
               526 C15    2py    ( 0.1769) 559 C16    2pz    (-0.2025) 656 C22    2py    ( 0.1792) 659 C22    2pz    ( 0.1001)
               689 C23    2pz    (-0.2167) 716 C24    2py    (-0.1662) 719 C24    2pz    ( 0.1031) 746 C25    2py    ( 0.1717)
               779 C26    2pz    (-0.1967)
         96   -0.5163    2.0000                                                                                                           
                 2 C1     2s     (-0.1286)  11 C1     2pz    (-0.1744)  41 S2     3py    ( 0.1120)  45 S2     3pz    ( 0.1403)
                69 O3     2px    ( 0.1222)  75 O3     2pz    ( 0.1393) 219 O5     2px    (-0.1213) 225 O5     2pz    (-0.1381)
               255 S6     3py    (-0.1110) 259 S6     3pz    (-0.1389) 280 C7     2s     (-0.1275) 289 C7     2pz    ( 0.1729)
               313 O8     2px    (-0.1022) 319 O8     2pz    ( 0.1394) 343 O9     2px    ( 0.1013) 349 O9     2pz    (-0.1381)
               466 C13    2py    ( 0.1416) 499 C14    2pz    ( 0.1711) 556 C16    2py    ( 0.1061) 593 H18    1s     (-0.1531)
               607 H19    1s     (-0.1508) 621 H20    1s     (-0.1056) 635 H21    1s     ( 0.1133) 686 C23    2py    (-0.1428)
               719 C24    2pz    (-0.1727) 776 C26    2py    (-0.1070) 799 H27    1s     ( 0.1003) 813 H28    1s     (-0.1545)
               827 H29    1s     (-0.1522) 841 H30    1s     (-0.1065) 855 H31    1s     ( 0.1144)
         97   -0.5140    2.0000                                                                                                           
                 2 C1     2s     ( 0.1218)  11 C1     2pz    ( 0.1810)  41 S2     3py    (-0.1113)  45 S2     3pz    (-0.1506)
                69 O3     2px    (-0.1084)  75 O3     2pz    (-0.1413) 219 O5     2px    (-0.1096) 225 O5     2pz    (-0.1425)
               255 S6     3py    (-0.1125) 259 S6     3pz    (-0.1519) 280 C7     2s     (-0.1230) 289 C7     2pz    ( 0.1826)
               313 O8     2px    ( 0.1015) 319 O8     2pz    (-0.1414) 343 O9     2px    ( 0.1023) 349 O9     2pz    (-0.1426)
               466 C13    2py    ( 0.1377) 499 C14    2pz    ( 0.1803) 556 C16    2py    ( 0.1022) 579 H17    1s     ( 0.1037)
               593 H18    1s     (-0.1479) 607 H19    1s     (-0.1616) 621 H20    1s     (-0.1056) 635 H21    1s     ( 0.1205)
               686 C23    2py    ( 0.1364) 719 C24    2pz    ( 0.1787) 776 C26    2py    ( 0.1013) 799 H27    1s     (-0.1028)
               813 H28    1s     ( 0.1466) 827 H29    1s     ( 0.1602) 841 H30    1s     ( 0.1047) 855 H31    1s     (-0.1195)
      
         98   -0.5052    2.0000                                                                                                           
                69 O3     2px    ( 0.1153) 219 O5     2px    (-0.1148) 439 C12    2pz    ( 0.1551) 466 C13    2py    (-0.1654)
               496 C14    2py    ( 0.1026) 526 C15    2py    (-0.1134) 529 C15    2pz    ( 0.1651) 556 C16    2py    (-0.1582)
               579 H17    1s     ( 0.1684) 593 H18    1s     ( 0.1726) 621 H20    1s     (-0.1920) 635 H21    1s     (-0.1618)
               659 C22    2pz    (-0.1565) 686 C23    2py    ( 0.1667) 716 C24    2py    (-0.1033) 746 C25    2py    ( 0.1141)
               749 C25    2pz    (-0.1666) 776 C26    2py    ( 0.1594) 799 H27    1s     ( 0.1698) 813 H28    1s     ( 0.1740)
               841 H30    1s     (-0.1935) 855 H31    1s     (-0.1631)
         99   -0.5041    2.0000                                                                                                           
                37 S2     3px    (-0.2836)  41 S2     3py    ( 0.1408)  66 O3     2s     ( 0.2207)  72 O3     2py    (-0.3412)
               216 O5     2s     ( 0.2203) 222 O5     2py    ( 0.3406) 251 S6     3px    ( 0.2831) 255 S6     3py    (-0.1406)
               310 O8     2s     (-0.2207) 313 O8     2px    ( 0.2647) 316 O8     2py    ( 0.2156) 340 O9     2s     (-0.2203)
               343 O9     2px    (-0.2641) 346 O9     2py    (-0.2154)
        100   -0.5032    2.0000                                                                                                           
               439 C12    2pz    (-0.1805) 466 C13    2py    ( 0.1819) 496 C14    2py    (-0.1010) 526 C15    2py    ( 0.1099)
               529 C15    2pz    (-0.1822) 556 C16    2py    ( 0.1718) 579 H17    1s     (-0.1790) 593 H18    1s     (-0.1925)
               621 H20    1s     ( 0.1996) 635 H21    1s     ( 0.1799) 659 C22    2pz    (-0.1795) 686 C23    2py    ( 0.1807)
               716 C24    2py    (-0.1002) 746 C25    2py    ( 0.1089) 749 C25    2pz    (-0.1811) 776 C26    2py    ( 0.1706)
               799 H27    1s     ( 0.1778) 813 H28    1s     ( 0.1912) 841 H30    1s     (-0.1982) 855 H31    1s     (-0.1787)
      
        101   -0.4924    2.0000                                                                                                           
                37 S2     3px    ( 0.2894)  41 S2     3py    (-0.1439)  66 O3     2s     (-0.2347)  72 O3     2py    ( 0.3376)
               108 NP4    6px    ( 0.1247) 216 O5     2s     ( 0.2349) 222 O5     2py    ( 0.3383) 251 S6     3px    ( 0.2901)
               255 S6     3py    (-0.1438) 310 O8     2s     ( 0.2346) 313 O8     2px    (-0.2768) 316 O8     2py    (-0.1939)
               340 O9     2s     (-0.2351) 343 O9     2px    (-0.2774) 346 O9     2py    (-0.1940)
[...]
 
   STATE IRREP:                             1
   SPIN MULTIPLICITY:                       3
   ACTIVE ELECTRONS:                        2
   MAX RAS1 HOLES:                          0
   MAX RAS3 ELECTRONS:                      0
   NR OF CONFIG:                            6
 
   Specific data for JOBIPH file 
 JOB002                                                                         
                                                  
   -------------------------------------
 
   Header from SEWARD:
                                                                               
        Integrals generated by seward 4.2.0  , Mon Nov 19 15:11:08 2018        
 
   CASSCF title (first line only):
       (No title given)                                                        
 
   STATE IRREP:                             1
   SPIN MULTIPLICITY:                       1
   ACTIVE ELECTRONS:                        2
   MAX RAS1 HOLES:                          0
   MAX RAS3 ELECTRONS:                      0
   NR OF CONFIG:                           10
 
   The following data are common to all the states:
   ------------------------------------------------
   (note: frozen counts as inactive, deleted as secondary)
 
      NR of irreps: 1
 
                 Total     No./Irrep 
      Irrep                  1
                             a
 
      INACTIVE     127     127
      ACTIVE         4       4
      SECONDARY    737     737
      BASIS        868     868
 
      RAS1           0       0
      RAS2           4       4
      RAS3           0       0
 
        MATRIX ELEMENTS WILL BE COMPUTED FOR THE FOLLOWING ONE-ELECTRON OPERATOR
 S, UNLESS ZERO BY SYMMETRY.
   (Herm=Hermitian, Anti=Antihermitian, Sing=Singlet operator, Trip=Triplet oper
 ator)
     MLTPL  1   1 (HERMSING)     MLTPL  1   2 (HERMSING)     MLTPL  1   3 (HERMSING)
     MLTPL  2   1 (HERMSING)     MLTPL  2   2 (HERMSING)     MLTPL  2   3 (HERMSING)
     MLTPL  2   4 (HERMSING)     MLTPL  2   5 (HERMSING)     MLTPL  2   6 (HERMSING)
     VELOCITY   1 (ANTISING)     VELOCITY   2 (ANTISING)     VELOCITY   3 (ANTISING)
     ANGMOM     1 (ANTISING)     ANGMOM     2 (ANTISING)     ANGMOM     3 (ANTISING)
     AMFI       1 (ANTITRIP)     AMFI       2 (ANTITRIP)     AMFI       3 (ANTITRIP)
 
       EIGENSTATES OF A SPIN-FREE HAMILTONIAN WILL BE COMPUTED BASED ON:
 
  a Hamiltonian matrix assumed to be diagonal with energies read from the wavefu
 nction file(s).
  SO coupling elements will be added.
       EIGENSTATES OF SPIN-ORBIT HAMILTONIAN WILL BE COMPUTED
        MATRIX ELEMENTS OVER SPIN EIGENSTATES FOR:
     MLTPL  1   1 (HERMSING)     MLTPL  1   2 (HERMSING)     MLTPL  1   3 (HERMSING)
     MLTPL  2   1 (HERMSING)     MLTPL  2   2 (HERMSING)     MLTPL  2   3 (HERMSING)
     MLTPL  2   4 (HERMSING)     MLTPL  2   5 (HERMSING)     MLTPL  2   6 (HERMSING)
     VELOCITY   1 (ANTISING)     VELOCITY   2 (ANTISING)     VELOCITY   3 (ANTISING)
     ANGMOM     1 (ANTISING)     ANGMOM     2 (ANTISING)     ANGMOM     3 (ANTISING)
 
  Nr of states:                    16
 
   State:        1   2   3   4   5   6   7   8   9  10  11  12  13  14  15  16
  JobIph:        1   1   1   1   1   1   2   2   2   2   2   2   2   2   2   2
 Root nr:        1   2   3   4   5   6   1   2   3   4   5   6   7   8   9  10
 
  HAMILTONIAN MATRIX FOR THE ORIGINAL STATES:
 
  Diagonal, with energies
 -30448.97467208 -30448.97396537 -30448.96768662 -30448.93648608 -30448.93351517
 -30448.89204629 -30448.95546851 -30448.93307845 -30448.93229640 -30448.92722954
 -30448.92612319 -30448.89774155 -30448.89404245 -30448.89278021 -30448.88900222
 -30448.83288474
 
      OVERLAP MATRIX FOR THE ORIGINAL STATES:
 
  Diagonal, with elements
      1.00000000      1.00000000      1.00000000      1.00000000      1.00000000
      1.00000000      1.00000000      1.00000000      1.00000000      1.00000000
      1.00000000      1.00000000      1.00000000      1.00000000      1.00000000
      1.00000000
 
::    RASSI State    1     Total energy: -30448.97467208
::    RASSI State    2     Total energy: -30448.97396537
::    RASSI State    3     Total energy: -30448.96768662
::    RASSI State    4     Total energy: -30448.93648608
::    RASSI State    5     Total energy: -30448.93351517
::    RASSI State    6     Total energy: -30448.89204629
::    RASSI State    7     Total energy: -30448.95546851
::    RASSI State    8     Total energy: -30448.93307845
::    RASSI State    9     Total energy: -30448.93229640
::    RASSI State   10     Total energy: -30448.92722954
::    RASSI State   11     Total energy: -30448.92612319
::    RASSI State   12     Total energy: -30448.89774155
::    RASSI State   13     Total energy: -30448.89404245
::    RASSI State   14     Total energy: -30448.89278021
::    RASSI State   15     Total energy: -30448.88900222
::    RASSI State   16     Total energy: -30448.83288474
 
 
 
      ****************************************************************************************************
      *                                                                                                  *
      *                                         Spin-free section                                        *
      *                                                                                                  *
      ****************************************************************************************************
 
 
 
  SPIN-FREE ENERGIES:
  (Shifted by EVAC (a.u.) =     -30448.9746720836)
 
 SF State       Relative EVAC(au)   Rel lowest level(eV)    D:o, cm**(-1)
 
     1             0.0000000000        0.0000000000              0.0000
     2             0.0007067128        0.0192306348            155.1055
     3             0.0069854636        0.1900841454           1533.1320
     4             0.0381859998        1.0390939801           8380.8582
     5             0.0411569174        1.1199367677           9032.8993
     6             0.0826257966        2.2483624475          18134.2663
     7             0.0192035745        0.5225558780           4214.6974
     8             0.0415936333        1.1318204112           9128.7473
     9             0.0423756843        1.1531011021           9300.3877
    10             0.0474425436        1.2909773686          10412.4348
    11             0.0485488919        1.3210826391          10655.2502
    12             0.0769305340        2.0933864578          16884.3006
    13             0.0806296338        2.1940440890          17696.1591
    14             0.0818918774        2.2283914890          17973.1896
    15             0.0856698665        2.3311958081          18802.3624
    16             0.1417873443        3.8582301576          31118.7251
 
++ Dipole transition strengths (spin-free states):
   -----------------------------------------------
     for osc. strength at least  1.00000000E-05
 
  ( Max oscillator strength is only   3.040706609614825E-010 )
--
 
++ Velocity transition strengths (spin-free states):
   -------------------------------------------------
     for osc. strength at least  1.00000000E-05
 
  ( Max oscillator strength is only   1.304050735493355E-008 )
--
 
 --------------------------------------------------
 
 A comparison between the dipole oscillator strengths in 
 length and velocity gauge will be performed
 
 All dipole oscillator differences above the tolerance of 
  0.100000000000000       will be printed 
 
 Due to basis set deficiency these oscillator may be problematic 
 
 The tolerance is defined as ABS(1-O_l/O_v) 
 O_l : dipole oscillator strength in length gauge
 O_p : dipole oscillator strength in velocity gauge
 
 --------------------------------------------------
 
 No problematic oscillator strengths above the tolerance 
  0.100000000000000       have been found
 
 
 
 
      ****************************************************************************************************
      *                                                                                                  *
      *                                         Spin-orbit section                                       *
      *                                                                                                  *
      ****************************************************************************************************
 
 
 Complex SO-Hamiltonian matrix elements over
 spin components of spin-free eigenstates (SFS):
 (In cm-1. Print threshold:   1700.000 cm-1)
 ----------------------------------------------------------------------
 
  I1  S1  MS1    I2  S2  MS2    Real part    Imag part      Absolute
     4  1.0 -1.0    1  1.0 -1.0         0.000      5121.134      5121.134
     6  1.0  1.0    3  1.0  1.0         0.000     -5121.134      5121.134
    10  1.0 -1.0    4  1.0 -1.0         0.000     -1823.679      1823.679
    10  1.0 -1.0    8  1.0  0.0      1669.193      -829.249      1863.829
    11  1.0  0.0    7  1.0 -1.0     -1669.193      -829.249      1863.829
    11  1.0  0.0    9  1.0  1.0      1669.193      -829.249      1863.829
    12  1.0  1.0    6  1.0  1.0         0.000      1823.679      1823.679
    12  1.0  1.0    8  1.0  0.0     -1669.193      -829.249      1863.829
    13  1.0 -1.0    1  1.0 -1.0         0.000     -1930.258      1930.258
    15  1.0  1.0    3  1.0  1.0         0.000      1930.258      1930.258
    19  0.0  0.0    8  1.0  0.0         0.000     -4305.280      4305.280
    20  0.0  0.0   11  1.0  0.0         0.000     -5408.029      5408.029
    21  0.0  0.0    8  1.0  0.0         0.000      2239.773      2239.773
    21  0.0  0.0   17  1.0  0.0         0.000     -1792.300      1792.300
    22  0.0  0.0   14  1.0  0.0         0.000     -5363.524      5363.524
    22  0.0  0.0   16  1.0 -1.0      1709.923       849.489      1909.310
    22  0.0  0.0   18  1.0  1.0      1709.923      -849.489      1909.310
    28  0.0  0.0   13  1.0 -1.0     -1774.362      -881.521      1981.272
    28  0.0  0.0   15  1.0  1.0     -1774.362       881.521      1981.272
    28  0.0  0.0   17  1.0  0.0         0.000      6005.462      6005.462
 ----------------------------------------------------------------------
 
       Total energies including SO-coupling:
::    SO-RASSI State    1     Total energy: -30449.00127975
::    SO-RASSI State    2     Total energy: -30449.00086388
::    SO-RASSI State    3     Total energy: -30448.98713528
::    SO-RASSI State    4     Total energy: -30448.98083122
::    SO-RASSI State    5     Total energy: -30448.98004830
::    SO-RASSI State    6     Total energy: -30448.97117603
::    SO-RASSI State    7     Total energy: -30448.96943241
::    SO-RASSI State    8     Total energy: -30448.96163239
::    SO-RASSI State    9     Total energy: -30448.95650122
::    SO-RASSI State   10     Total energy: -30448.95137179
::    SO-RASSI State   11     Total energy: -30448.94860994
::    SO-RASSI State   12     Total energy: -30448.94434437
::    SO-RASSI State   13     Total energy: -30448.93572130
::    SO-RASSI State   14     Total energy: -30448.93339000
::    SO-RASSI State   15     Total energy: -30448.93109517
::    SO-RASSI State   16     Total energy: -30448.92973818
::    SO-RASSI State   17     Total energy: -30448.92827758
::    SO-RASSI State   18     Total energy: -30448.92331185
::    SO-RASSI State   19     Total energy: -30448.91467442
::    SO-RASSI State   20     Total energy: -30448.91244838
::    SO-RASSI State   21     Total energy: -30448.90034917
::    SO-RASSI State   22     Total energy: -30448.89398828
::    SO-RASSI State   23     Total energy: -30448.89242102
::    SO-RASSI State   24     Total energy: -30448.89009818
::    SO-RASSI State   25     Total energy: -30448.88628187
::    SO-RASSI State   26     Total energy: -30448.88626409
::    SO-RASSI State   27     Total energy: -30448.88397626
::    SO-RASSI State   28     Total energy: -30448.82049975
 
 
   Eigenvalues of complex Hamiltonian:
   -----------------------------------
 
  (Shifted by EVAC (a.u.) =    -30448.974672084)
 
          Relative EVac(au)    Rel lowest level(eV)    D:o, cm**(-1)
 
     1       -0.0266076701          0.0000000000              0.0000
     2       -0.0261917996          0.0113164148             91.2730
     3       -0.0124631926          0.3848908378           3104.3540
     4       -0.0061591407          0.5564328287           4487.9335
     5       -0.0053762196          0.5777371954           4659.7648
     6        0.0034960563          0.8191641218           6607.0043
     7        0.0052396721          0.8666103237           6989.6837
     8        0.0130396935          1.0788597151           8701.5905
     9        0.0181708636          1.2184859676           9827.7522
    10        0.0233002953          1.3580649123          10953.5323
    11        0.0260621415          1.4332185758          11559.6875
    12        0.0303277112          1.5492906383          12495.8718
    13        0.0389507797          1.7839362859          14388.4166
    14        0.0412820825          1.8473742646          14900.0784
    15        0.0435769162          1.9098198721          15403.7362
    16        0.0449339049          1.9467454153          15701.5608
    17        0.0463944988          1.9864901989          16022.1241
    18        0.0513602379          2.1216148433          17111.9779
    19        0.0599976681          2.3566512896          19007.6747
    20        0.0622237063          2.4172248757          19496.2336
    21        0.0743229184          2.7464612046          22151.7037
    22        0.0806838081          2.9195498314          23547.7576
    23        0.0822510621          2.9621969839          23891.7301
    24        0.0845739042          3.0254047369          24401.5350
    25        0.0883902156          3.1292518605          25239.1186
    26        0.0884079920          3.1297355795          25243.0200
    27        0.0906958197          3.1919905427          25745.1402
    28        0.1541723288          4.9192743365          39676.6236
 
 
 Weights of the five most important spin-orbit-free states for each spin-orbit s
 tate.
 
 SO State  Total energy (au)           Spin-free states, spin, and weights
 -------------------------------------------------------------------------------
 ------------------------
    1        -0.026608       1 1.0  0.4776    2 1.0  0.4615    9 0.0  0.0222    7 0.0  0.0183    5 1.0  0.0094
    2        -0.026192       1 1.0  0.4916    2 1.0  0.4639   11 0.0  0.0275    4 1.0  0.0086    5 1.0  0.0084
    3        -0.012463       3 1.0  0.6540    7 0.0  0.1984    4 1.0  0.0411    9 0.0  0.0337    5 1.0  0.0332
    4        -0.006159       1 1.0  0.4587    3 1.0  0.3243    4 1.0  0.1110    8 0.0  0.1053   14 0.0  0.0006
    5        -0.005376       2 1.0  0.5129    3 1.0  0.3254   10 0.0  0.0801    5 1.0  0.0766   13 0.0  0.0044
    6         0.003496       1 1.0  0.5205    3 1.0  0.3622    4 1.0  0.0942    8 0.0  0.0193   14 0.0  0.0034
    7         0.005240       2 1.0  0.4683    3 1.0  0.4327    5 1.0  0.0789   10 0.0  0.0189   13 0.0  0.0010
    8         0.013040       2 1.0  0.3016    7 0.0  0.2955    1 1.0  0.1859    4 1.0  0.0988    5 1.0  0.0871
    9         0.018171       2 1.0  0.4289    1 1.0  0.4005    4 1.0  0.0836    5 1.0  0.0661   15 0.0  0.0197
   10         0.023300       8 0.0  0.3773    4 1.0  0.3043    3 1.0  0.3027    1 1.0  0.0106    6 1.0  0.0049
   11         0.026062       5 1.0  0.3814   10 0.0  0.3627    3 1.0  0.2375    2 1.0  0.0090    6 1.0  0.0066
   12         0.030328       7 0.0  0.2942    1 1.0  0.2714    2 1.0  0.1577    3 1.0  0.0768    4 1.0  0.0736
   13         0.038951       4 1.0  0.6938    5 1.0  0.1286    2 1.0  0.0880   11 0.0  0.0386    1 1.0  0.0317
   14         0.041282       4 1.0  0.5405    9 0.0  0.3247    5 1.0  0.0695    2 1.0  0.0386    7 0.0  0.0138
   15         0.043577       5 1.0  0.7804    4 1.0  0.1551    1 1.0  0.0344   11 0.0  0.0218   15 0.0  0.0080
   16         0.044934       5 1.0  0.5969    3 1.0  0.1400    7 0.0  0.1321    6 1.0  0.0589   16 0.0  0.0321
   17         0.046394       9 0.0  0.5242    4 1.0  0.1791    3 1.0  0.1029    6 1.0  0.0786    5 1.0  0.0767
   18         0.051360      11 0.0  0.9107    4 1.0  0.0566    1 1.0  0.0226    5 1.0  0.0079    2 1.0  0.0011
   19         0.059998       4 1.0  0.4190    8 0.0  0.3748    6 1.0  0.1908    3 1.0  0.0102    1 1.0  0.0041
   20         0.062224       5 1.0  0.3761   10 0.0  0.3614    6 1.0  0.2533    3 1.0  0.0039    2 1.0  0.0038
   21         0.074323      12 0.0  0.4191    6 1.0  0.4064   16 0.0  0.0414    9 0.0  0.0382    4 1.0  0.0257
   22         0.080684      13 0.0  0.9490    6 1.0  0.0387   10 0.0  0.0062    2 1.0  0.0039    5 1.0  0.0009
   23         0.082251      14 0.0  0.9947    1 1.0  0.0035    4 1.0  0.0014    6 1.0  0.0002    8 0.0  0.0001
   24         0.084574      12 0.0  0.5226    6 1.0  0.3218   16 0.0  0.0428    5 1.0  0.0373    4 1.0  0.0210
   25         0.088390       6 1.0  0.4675   15 0.0  0.3984    8 0.0  0.0715    4 1.0  0.0416    1 1.0  0.0096
   26         0.088408      15 0.0  0.5537    6 1.0  0.3362    8 0.0  0.0516    4 1.0  0.0308    1 1.0  0.0122
   27         0.090696       6 1.0  0.7015   10 0.0  0.1681    5 1.0  0.0849   13 0.0  0.0426    2 1.0  0.0026
   28         0.154172      16 0.0  0.8631    6 1.0  0.1224    5 1.0  0.0081    4 1.0  0.0048    9 0.0  0.0007
 -------------------------------------------------------------------------------
 ------------------------
 
 
      ****************************************************************************************************
      *                                                                                                  *
      *                                    Special properties section                                    *
      *                                                                                                  *
      ****************************************************************************************************
 
 
 
 --------------------------------------------------
 
 A comparison between the dipole oscillator strengths in 
 length and velocity gauge will be performed
 
 All dipole oscillator differences above the tolerance of 
  0.100000000000000       will be printed 
 
 Due to basis set deficiency these oscillator may be problematic 
 
 The tolerance is defined as ABS(1-O_l/O_v) 
 O_l : dipole oscillator strength in length gauge
 O_p : dipole oscillator strength in velocity gauge
 
 --------------------------------------------------
 
 No problematic oscillator strengths above the tolerance 
  0.100000000000000       have been found
 
 ###############################################################################
 ###############################################################################
 ###                                                                         ###
 ###                                                                         ###
 ###    RunFile label nBas                                                   ###
 ###    was used     4936 times                                              ###
 ###                                                                         ###
 ###                                                                         ###
 ###############################################################################
 ###############################################################################
--- Stop Module: rassi at Wed Nov 21 17:24:39 2018 /rc=_RC_ALL_IS_WELL_ ---
*** files: NpO2_C6H5SO2_C6H5SO2-m1-triplet.rassi-SO-casscf-xmscaspt2.VTZP.rassi.h5 xmldump
    saved to directory /home/vallet/John-methylsulfonyl/NpO2_C6H5SO2_C6H5SO2-m1/geom-triplet/optg-freq-pbe0/gaussian/SO-XMS
--- Module rassi spent 24 seconds ---

    Timing: Wall=180842.67 User=560263.24 System=45666.35
