
   OpenMP run-time library returned nthreads = 16
 operating system is UNIX !

 force (u-5-1.local) : TURBOMOLE V7.3.1 () 25 Feb 2019 at 10:13:53
 Copyright (C) 2019 TURBOMOLE GmbH, Karlsruhe


    2019-12-03 16:37:24.818 



                             T U R B O M O L E   

                          a o f o r c e - program

                        using direct algorithms for

                       SCF level calculations of
                         * harmonic force constants
                         * hyperpolarizabilities
                         * IR and RAMAN intensities
                         * VCD intensities

                       DFT level calculations of
                         * harmonic force constants
                         * IR intensities
                                                   
       Stephan Boecker, Peter Deglmann, Filipp Furche and Marco Haeser
                          Quantum Chemistry Group
                          Universitaet  Karlsruhe
                                   Germany

 
 

          OpenMP Shared-Memory Parallelization: 16 CPUs.

            By: Erik P. Almaraz and Filipp Furche
            Copyright 2009-2011 by UCI and TURBOMOLE GmbH.

 
 
     References :
 
       RI-J implementation:
         Peter Deglmann, Klaus May, Filipp Furche, Reinhart Ahlrichs
                 Chem. Phys. Lett. 384:103 (2004)
 
       Efficiency, technical details:
         Peter Deglmann, Filipp Furche, Reinhart Ahlrichs
                 Chem. Phys. Lett. 362:511 (2002)
 
       Search of lowest eigenvalues by iterative diagonalization:
         Peter Deglmann, Filipp Furche
                 J. Chem. Phys. 117:9535 (2002)
 
       Vibrational circular dichroism implementation:
        Kevin Reiter, Michael Kuehn, Florian Weigend
                 J. Chem. Phys. 146:054102 (2017)  
 
 


              +--------------------------------------------------+
              | Atomic coordinate, charge and isotop information |
              +--------------------------------------------------+

                    atomic coordinates            atom    charge  isotop
         -4.13782648    1.51031527    0.00000000    c      6.000     0
         -2.82182043   -1.65458680    0.00000000    s     16.000     0
         -1.09275273   -1.56403366   -2.32791855    o      8.000     0
          3.04741119   -0.87249317    0.00000000    u     92.000     0
          6.78862261   -0.15112352    1.33927320    o      8.000     0
         -1.09275273   -1.56403366    2.32791855    o      8.000     0
          3.45642274   -4.20766952    0.00000000    o      8.000     0
          2.19513457    2.39124904    0.00000000    o      8.000     0
         -5.28893133    1.72813855    1.69522281    h      1.000     0
         -2.54125512    2.81315488    0.00000000    h      1.000     0
         -5.28893133    1.72813855   -1.69522281    h      1.000     0
          6.78862261   -0.15112352   -1.33927320    o      8.000     0
 
       center of nuclear mass  :    2.21621308   -0.84018739    0.00000000
       center of nuclear charge:    2.02189698   -0.80839585    0.00000000

              +--------------------------------------------------+
              |               basis set information              |
              +--------------------------------------------------+

              we will work with the 1s 3p 5d 7f 9g ... basis set
              ...i.e. with spherical basis functions...

   type   atoms  prim   cont   basis
   ---------------------------------------------------------------------------
    c        1     66     46   aug-cc-pVTZ   [5s4p3d2f|19s6p3d2f]
    s        1    122     50   aug-cc-pVTZ   [6s5p3d2f|42s17p3d2f]
    o        6     66     46   aug-cc-pVTZ   [5s4p3d2f|19s6p3d2f]
    u        1    213    117   SVP(6g)   [10s9p5d4f3g|14s13p10d8f6g]
    h        3     25     23   aug-cc-pVTZ   [4s3p2d|6s3p2d]
   ---------------------------------------------------------------------------
   total:   12    872    558
   ---------------------------------------------------------------------------

   total number of primitive shells          :  186
   total number of contracted shells         :  172
   total number of cartesian basis functions :  671
   total number of SCF-basis functions       :  558

 number of unique ecp types :                     1
 
             FOUND RI-J FLAG !
 

 NOTE: THIS IS A PRELIMINARY IMPLEMENTATION. THE RI APPROXIMATION IS
       PRESENTLY USED FOR CPKS CONTRIBUTIONS TO THE HESSIAN ONLY! SEE
       MANUAL FOR FURTHER DETAILS.

  
 AUXILIARY BASIS SET information:

              we will work with the 1s 3p 5d 7f 9g ... basis set
              ...i.e. with spherical basis functions...

   type   atoms  prim   cont   basis
   ---------------------------------------------------------------------------
    c        1     70     49   aug-cc-pVTZ   [6s4p3d1f1g|12s5p4d2f1g]
    s        1     77     51   aug-cc-pVTZ   [8s4p3d1f1g|14s5p5d2f1g]
    o        6     70     49   aug-cc-pVTZ   [6s4p3d1f1g|12s5p4d2f1g]
    u        1    268    205   def-TZVPP   [14s7p7d6f5g2h2i|18s7p7d6f6g3h5i]
    h        3     16     11   aug-cc-pVTZ   [3s1p1d|5s2p1d]
   ---------------------------------------------------------------------------
   total:   12    883    632
   ---------------------------------------------------------------------------

   total number of primitive shells          :  135
   total number of contracted shells         :  180
   total number of cartesian basis functions :  836
   total number of SCF-basis functions       :  632


 symmetry group of the molecule :   cs

 the group has the following generators :
   c1(z)
   mirror plane sigma(xy)

    2 symmetry operations found

 there are 2 real representations :   a'   a"  

 maximum number of shells which are related by symmetry :  2


 determining totally symmetric integral contributions 
    - equivalent to irreducible tensor elements - 
 which can be formed within each triple of representations :

             representation triple      contributions

              a'    a'    a'              1
              a'    a"    a"              1
              a"    a'    a"              1
              a"    a"    a'              1

    mo occupation :
   irrep   mo's   occupied
    a'     328       36
    a"     230       17
 
 number of basis functions   :                    558
 number of occupied orbitals :                     53
 
  MOs are in ASCII format !


 reading orbital data $scfmo  from file mos
 orbital characterization : scfconv=6
 time elapsed for calculating density matrices :   0.008 sec

 number of non-frozen orbitals          :   558
 number of non-frozen occupied orbitals :    53
 Blocking parameters 
 shells:
    index      start shell   last shell  start bf    last bf    #bf 
       1             1         172             1        671    671
          size of I/O Block in Byte:              129669408
  
           ----------------------
               RI - INFORMATION
           ----------------------

 biggest AO integral is expected to be    25.028879086

 Threshold for integral neglect (rithr2):   0.19E-10
 Threshold for integral neglect (rithr1):   0.19E-10

 Contributions to RI integral batches: 
  neglected integral batches:                  5848
  direct contribution:                         3152
  memory contribution:                  5878
 Core memory available (ricore):               500 MiB
 Core memory needed for (P|Q) and Cholesky:      2 MiB
 Core memory used for integrals:               451 MiB
 
 ****************************************
 Memory allocated for RIDFT: 453 MiB
 ****************************************
 
  
           ------------------
           density functional
           ------------------
 PBE0 hybrid functional
 exchange:    3/4 (LDA+PBE) + 1/4 HF
 correlation: LDA (PW) + PBE

 iterations will be done with small grid
  
 spherical integration : Lebedev's spherical grid
 spherical gridsize    :                     4
    i.e. gridpoints    :                   434
 value for diffuse not defined
 radial integration    : Chebyshev 2nd kind (scaling 3)
 radial gridsize       :                     6
 integration cells     :                     9
 partition function    : becke
 partition sharpness   :                     3
  
 
 Derivatives of quadrature weights will be included
 
          Overall gridpoints after grid construction =         71716
 Ordering of quadrature gridpoints disabled.
 
 
 
 
 OCCUPIED-OCCUPIED TENSOR SPACES :

          IRREP   tensor space dimension   number of roots

           a'             1585                  18
           a"             1224                  12
 
 OCCUPIED-VIRTUAL TENSOR SPACES :

          IRREP   tensor space dimension   number of roots

           a'            14133                  18
           a"            12632                  12
 
 
 
 
 CONSTRUCTING integral bounds

 setting up bound for integral derivative estimation

 increment for numerical differentiation : 0.00050000
 
 machine precision:   2.220446049250313E-016

 integral neglect threshold       :  0.10E-09
 integral storage threshold THIZE :  0.10E-04
 integral storage threshold THIME :         5

 
 
 
 PREPARING NUMERICAL INTEGRATION
 
 Remaining core memory for DFT =                  7626 MB
 
 Memory needed per atom    =                  5284 KiB
 
     i. e.                    12 atoms per loop

 Calculating ground state density on molecular grid

 Integral of ground state density: N =   106.0000149546968    


 
 
 CONSTRUCTING first deriv. of <mu|x,y,z|nu> -> Dip. deriv.
  dipole integral derivatives will be neglected if
  expon. factor <0.745156E-11
      ...terminated. cpu:       0.98       wall:       0.06
 
 
 
 
 CONSTRUCTING first deriv. of  <mu|nu>
                               <mu|h|nu>    -> RHS
              second deriv. of <mu|nu>      -> Hessian
                               <mu|h|nu>    -> Hessian
                               nucl. rep.   -> Hessian
     integrals are neglected if expon. factor <  7.451564828614009E-013
 
 CONSTRUCTING ECP contribution              -> RHS
 
                                            -> Hessian
      ...terminated. cpu:      19.62       wall:      13.60
 
 
 
 
 CONSTRUCTING second deriv. of 2e energy    -> Hessian
   treating Coulomb (and exchange) contribution
     integrals will be neglected if total contribution <  7.451564828614008E-009
      ...terminated. cpu:    1480.33       wall:      92.52
   treating exchange-correlation contribution
      ...terminated. cpu:     172.85       wall:      11.35
 
 
 
 
 CONSTRUCTING S(i,j)xi
      ...terminated. cpu:       0.50       wall:       0.03
 
 
 
 
 CONSTRUCTING <i|x,y,z|j>*S(i,j)xi          -> Dip. deriv.
      ...terminated. cpu:       2.43       wall:       0.15
 
 
 
 
 CONSTRUCTING epsilon(i)*S(i,j)xi*S(i,j)chi -> Hessian
      ...terminated. cpu:       0.00       wall:       0.00
 
 
 
 
 CONSTRUCTING G(a,i)[S(k,l)xi]              -> RHS
              G(i,j)[S(k,l)xi]*S(i,j)chi    -> Hessian
 
         Maximum core memory set to                   8000 MB
         This corresponds to                  2306 vectors in CAO basis
      ...terminated. cpu:    1339.87       wall:     105.09
 
 
 
 
 CONSTRUCTING G(mu,nu)[D(kap,lam)]xi
 
          Maximum core memory set to                   8000 MB
          Atoms treated simultaneously :                    12
 max of dfo   246.512540270855     
      ...terminated. cpu:    1447.55       wall:      90.80
 
 
 
 
 CONSTRUCTING F(a,i)xi                      -> RHS
              F(i,j)xi*S(i,j)chi            -> Hessian
 
        Maximum core memory set to                  8000 MB
        This corresponds to                  4376 vectors in CAO basis
      ...terminated. cpu:       6.60       wall:       0.62
 
 
 
 
 CONSTRUCTING epsilon(i)*S(a,i)xi           -> RHS
      ...terminated. cpu:       3.01       wall:       0.28
 
 
 
 
 SOLVING CPHF equations
 
 Residuum convergence criterium   :  1.000000000000000E-005
 
 Maximum number of Davidson iterations set to                    25
  Switching to small grid
        preparing numerical integration ....
          Overall gridpoints after grid construction =         22219

 Calculating ground state density on molecular grid

 Integral of ground state density: N =   105.9998824525644    




                       Nonorthonormal Krylov Space Iteration


 total number of roots to be determined: 30


 maximum core memory set to  8000 MB,
 corresponding to     2301 vectors in CAO basis


 maximum number of simultaneously treated vectors (including degeneracy):       30


 Iteration IRREP Converged      Max. Euclidean
                 roots          residual norm

    1       a'       0        1.266818071337402D-01
            a"       0        4.413655408712917D-02
 
    2       a'       0        2.080204047460576D-02
            a"       0        2.345813821757491D-02
 
    3       a'       0        5.970971577454029D-03
            a"       0        2.997319252989664D-03
 
    4       a'       0        8.333236372312381D-04
            a"       0        8.512226315515382D-04
 
    5       a'       0        1.656707015351816D-04
            a"       2        1.322992723450359D-04
 
    6       a'      13        2.458269802006308D-05
            a"      10        1.589554558914914D-05
 
    7       a'      18        8.523867251777780D-06
            a"      12        8.465947630457639D-06
 

 converged!

  Switching to fine grid
        preparing numerical integration ....
          Overall gridpoints after grid construction =         71716

 Calculating ground state density on molecular grid

 Integral of ground state density: N =   106.0000149546969    



 Iteration IRREP Converged      Max. Euclidean
                 roots          residual norm

    8       a'       0        7.401131350790129D-05
            a"       2        6.514575190861069D-05
 

 NOTE: Residual norms are larger than 1.00D-05 due to mgrid option!

      ...terminated. cpu:    5808.57       wall:     492.04
 
 
 
 
 CONSTRUCTING <a|x,y,z|i>*U(a,i)xi          -> Dip. deriv.
      ...terminated. cpu:       0.56       wall:       0.03
 
 
 
 
 CONSTRUCTING RHS(a,i)xi*U(a,i)chi          -> Hessian
      ...terminated. cpu:       0.05       wall:       0.00
 
 
 
 

            -----------------------
            permanent dipole moment
            -----------------------

                                   x                y                z
    electronic part       : -154.7084594192    82.1451871482    -0.0000000000
     nuclear   part       :  150.7683310517   -81.0357253572    -0.0000000000
     total                :   -3.9401283674     1.1094617911    -0.0000000000

 with reference to the point :   0.0000000        0.0000000        0.0000000
 (given in atomic units)
    | dipole |       :   10.4043374141  debye

   ***  dipole moment & cartesian dipole gradients written onto
        $dipole, $dipgrad,  file=<dipgrad>  ***

             -----------------------------------
             rotational and vibrational analysis
             -----------------------------------


            ==============================================================
            ATOMIC WEIGHTS (average over the natural occurance of isotops)
            ==============================================================
            ('*' denotes special isotop !)
              1     c                12.01115
              2     s                32.06400
              3     o                15.99940
              4     u               238.03000
              5     o                15.99940
              6     o                15.99940
              7     o                15.99940
              8     o                15.99940
              9     h                 1.00797
             10     h                 1.00797
             11     h                 1.00797
             12     o                15.99940

          -------------------------------------------------
          CARTESIAN FORCE CONSTANT MATRIX (hartree/bohr**2)
         (translational & rotational space projected out)
          -------------------------------------------------

   ATOM              1 c                           2 s 
                  dx        dy        dz        dx        dy        dz
   1 c     dx  0.5389923
           dy  0.0793318 0.3679664
           dz  0.0000000 0.0000000 0.5656966
   2 s     dx -0.0474592 0.0253669 0.0000000 0.4791212
           dy -0.0216416-0.1466559 0.0000000 0.0387321 0.2910804
           dz  0.0000000 0.0000000-0.0371147 0.0000000 0.0000000 0.5087268
   3 o     dx -0.0098954 0.0030781 0.0190146-0.1954680-0.0116478 0.1505108
           dy  0.0260570 0.0092049-0.0217938-0.0306621-0.0598027 0.0203973
           dz  0.0084835-0.0038224-0.0089809 0.1395766 0.0058635-0.2428308
   4 u     dx  0.0010361-0.0026722 0.0000000-0.0460106-0.0029442 0.0000000
           dy  0.0020462-0.0006844 0.0000000-0.0128390 0.0123611 0.0000000
           dz  0.0000000 0.0000000-0.0035794 0.0000000 0.0000000 0.0272352
   5 o     dx -0.0002928 0.0004793-0.0000294 0.0031813-0.0003178-0.0003459
           dy -0.0000966 0.0001325-0.0000129 0.0007277-0.0002353-0.0000651
           dz -0.0002436 0.0004971 0.0000200 0.0026973-0.0003092-0.0000997
   6 o     dx -0.0098954 0.0030781-0.0190146-0.1954680-0.0116478-0.1505108
           dy  0.0260570 0.0092049 0.0217938-0.0306621-0.0598027-0.0203973
           dz -0.0084835 0.0038224-0.0089809-0.1395766-0.0058635-0.2428308
   7 o     dx -0.0003561 0.0003760 0.0000000 0.0034599-0.0011260 0.0000000
           dy  0.0003714-0.0001997 0.0000000-0.0018465-0.0028113 0.0000000
           dz  0.0000000 0.0000000 0.0010687 0.0000000 0.0000000-0.0046368
   8 o     dx -0.0005033 0.0014079 0.0000000-0.0001221 0.0039364 0.0000000
           dy -0.0001748 0.0016981 0.0000000 0.0082834-0.0058381 0.0000000
           dz  0.0000000 0.0000000 0.0006419 0.0000000 0.0000000-0.0046544
   9 h     dx -0.1302396 0.0134593 0.1274154-0.0064766-0.0027755 0.0080328
           dy  0.0156927-0.0446030-0.0254463 0.0103385 0.0031457-0.0188937
           dz  0.1266809-0.0228630-0.2315315-0.0008588 0.0011557-0.0021868
  10 h     dx -0.2108543-0.1378439 0.0000000 0.0085373 0.0125254 0.0000000
           dy -0.1432392-0.1515933 0.0000000-0.0185051-0.0343514 0.0000000
           dz  0.0000000 0.0000000-0.0457284 0.0000000 0.0000000 0.0006782
  11 h     dx -0.1302396 0.0134593-0.1274154-0.0064766-0.0027755-0.0080328
           dy  0.0156927-0.0446030 0.0254463 0.0103385 0.0031457 0.0188937
           dz -0.1266809 0.0228630-0.2315315 0.0008588-0.0011557-0.0021868
  12 o     dx -0.0002928 0.0004793 0.0000294 0.0031813-0.0003178 0.0003459
           dy -0.0000966 0.0001325 0.0000129 0.0007277-0.0002353 0.0000651
           dz  0.0002436-0.0004971 0.0000200-0.0026973 0.0003092-0.0000997

   ATOM              3 o                           4 u 
                  dx        dy        dz        dx        dy        dz
   3 o     dx  0.1865554
           dy -0.0024253 0.0476289
           dz -0.1483660 0.0042308 0.2987835
   4 u     dx -0.0093430 0.0019203-0.0104983 0.4437940
           dy  0.0043693-0.0195558-0.0040324-0.1102716 0.9762450
           dz -0.0033441 0.0005241-0.0229795 0.0000000 0.0000000 0.1208669
   5 o     dx -0.0066302-0.0009768-0.0015515-0.1320728-0.0211623-0.0420931
           dy -0.0013926 0.0004249-0.0001957-0.0208820-0.0278817-0.0082265
           dz -0.0031360-0.0004468 0.0004164-0.0423248-0.0084285-0.0216523
   6 o     dx  0.0395966 0.0081550 0.0127444-0.0093430 0.0043693 0.0033441
           dy  0.0081550 0.0133855 0.0006301 0.0019203-0.0195558-0.0005241
           dz -0.0127444-0.0006301-0.0320171 0.0104983 0.0040324-0.0229795
   7 o     dx -0.0036093 0.0039647-0.0004667-0.0530393 0.0582546 0.0000000
           dy  0.0091103 0.0065791 0.0027665 0.0739008-0.4557724 0.0000000
           dz -0.0023883 0.0020530 0.0024239 0.0000000 0.0000000-0.0275888
   8 o     dx  0.0037084-0.0064515-0.0012006-0.0633034 0.0920081 0.0000000
           dy -0.0138276 0.0011681-0.0010732 0.0801378-0.4326354 0.0000000
           dz -0.0028635-0.0043529 0.0025187 0.0000000 0.0000000-0.0280619
   9 h     dx -0.0010258 0.0041722 0.0013630 0.0006882-0.0004875 0.0007962
           dy  0.0060256-0.0070558-0.0028802-0.0006194-0.0013951-0.0007578
           dz -0.0002361-0.0006039 0.0014258-0.0004295 0.0000435-0.0001712
  10 h     dx -0.0004630-0.0027009-0.0006442-0.0010215 0.0053627 0.0000000
           dy  0.0010958 0.0073479-0.0001063 0.0010115-0.0018487 0.0000000
           dz -0.0002721 0.0003593-0.0007218 0.0000000 0.0000000 0.0007338
  11 h     dx  0.0006379-0.0005440 0.0021345 0.0006882-0.0004875-0.0007962
           dy -0.0016270 0.0007928-0.0010983-0.0006194-0.0013951 0.0007578
           dz  0.0002412-0.0002601 0.0009454 0.0004295-0.0000435-0.0001712
  12 o     dx -0.0040638-0.0005086-0.0015746-0.1320728-0.0211623 0.0420931
           dy -0.0009139-0.0001177-0.0002822-0.0208820-0.0278817 0.0082265
           dz  0.0035840 0.0005230 0.0010164 0.0423248 0.0084285-0.0216523

   ATOM              5 o                           6 o 
                  dx        dy        dz        dx        dy        dz
   5 o     dx  0.1294362
           dy  0.0206275 0.0264911
           dz  0.0432997 0.0083303 0.2888081
   6 o     dx -0.0040638-0.0009139-0.0035840 0.1865554
           dy -0.0005086-0.0001177-0.0005230-0.0024253 0.0476289
           dz  0.0015746 0.0002822 0.0010164 0.1483660-0.0042308 0.2987835
   7 o     dx  0.0033058-0.0075178 0.0037305-0.0036093 0.0039647 0.0004667
           dy -0.0165931 0.0000924-0.0124791 0.0091103 0.0065791-0.0027665
           dz  0.0011499-0.0058527 0.0018951 0.0023883-0.0020530 0.0024239
   8 o     dx -0.0056390 0.0054135-0.0013502 0.0037084-0.0064515 0.0012006
           dy  0.0143652 0.0087275 0.0132382-0.0138276 0.0011681 0.0010732
           dz -0.0011405 0.0058518 0.0018836 0.0028635 0.0043529 0.0025187
   9 h     dx -0.0001034-0.0000097-0.0001318 0.0006379-0.0005440-0.0021345
           dy  0.0000361 0.0000338 0.0000320-0.0016270 0.0007928 0.0010983
           dz  0.0000784 0.0000133 0.0000727-0.0002412 0.0002601 0.0009454
  10 h     dx  0.0003264-0.0000372 0.0002723-0.0004630-0.0027009 0.0006442
           dy -0.0000923 0.0000282-0.0000878 0.0010958 0.0073479 0.0001063
           dz -0.0000138 0.0000159-0.0000403 0.0002721-0.0003593-0.0007218
  11 h     dx -0.0001274-0.0000182-0.0000871-0.0010258 0.0041722-0.0013630
           dy  0.0000435 0.0000389 0.0000436 0.0060256-0.0070558 0.0028802
           dz -0.0000706-0.0000074-0.0000612 0.0002361 0.0006039 0.0014258
  12 o     dx  0.0126798 0.0040992 0.0008578-0.0066302-0.0009768 0.0015515
           dy  0.0040992-0.0077346 0.0001333-0.0013926 0.0004249 0.0001957
           dz -0.0008578-0.0001333-0.2722588 0.0031360 0.0004468 0.0004164

   ATOM              7 o                           8 o 
                  dx        dy        dz        dx        dy        dz
   7 o     dx  0.0430147
           dy -0.0546544 0.4412366
           dz  0.0000000 0.0000000 0.0156592
   8 o     dx  0.0077662-0.0021191 0.0000000 0.0606806
           dy  0.0040661 0.0037121 0.0000000-0.0903039 0.4111925
           dz  0.0000000 0.0000000 0.0067934 0.0000000 0.0000000 0.0174468
   9 h     dx -0.0000774 0.0001360-0.0001477-0.0005829 0.0003740-0.0003144
           dy  0.0001028 0.0000691 0.0002668-0.0007040 0.0008468-0.0002521
           dz  0.0000987-0.0000728 0.0000347 0.0000270-0.0000289 0.0000118
  10 h     dx -0.0000836-0.0009587 0.0000000 0.0005089-0.0038318 0.0000000
           dy -0.0000158 0.0003535 0.0000000-0.0014454 0.0003860 0.0000000
           dz  0.0000000 0.0000000-0.0000031 0.0000000 0.0000000-0.0009940
  11 h     dx -0.0000774 0.0001360 0.0001477-0.0005829 0.0003740 0.0003144
           dy  0.0001028 0.0000691-0.0002668-0.0007040 0.0008468 0.0002521
           dz -0.0000987 0.0000728 0.0000347-0.0000270 0.0000289 0.0000118
  12 o     dx  0.0033058-0.0165931-0.0011499-0.0056390 0.0143652 0.0011405
           dy -0.0075178 0.0000924 0.0058527 0.0054135 0.0087275-0.0058518
           dz -0.0037305 0.0124791 0.0018951 0.0013502-0.0132382 0.0018836

   ATOM              9 h                          10 h 
                  dx        dy        dz        dx        dy        dz
   9 h     dx  0.1362024
           dy -0.0168084 0.0445893
           dz -0.1382257 0.0256006 0.2478843
  10 h     dx -0.0099732-0.0091619-0.0020173 0.2231328
           dy  0.0058203 0.0040923 0.0000404 0.1485462 0.1641171
           dz  0.0183125 0.0177235 0.0010975 0.0000000 0.0000000 0.0446427
  11 h     dx  0.0110779-0.0033186 0.0150529-0.0099732 0.0058203-0.0183125
           dy -0.0033186-0.0005547-0.0035525-0.0091619 0.0040923-0.0177235
           dz -0.0150529 0.0035525-0.0175216 0.0020173-0.0000404 0.0010975
  12 o     dx -0.0001274 0.0000435 0.0000706 0.0003264-0.0000923 0.0000138
           dy -0.0000182 0.0000389 0.0000074-0.0000372 0.0000282-0.0000159
           dz  0.0000871-0.0000436-0.0000612-0.0002723 0.0000878-0.0000403

   ATOM             11 h                          12 o 
                  dx        dy        dz        dx        dy        dz
  11 h     dx  0.1362024
           dy -0.0168084 0.0445893
           dz  0.1382257-0.0256006 0.2478843
  12 o     dx -0.0001034 0.0000361-0.0000784 0.1294362
           dy -0.0000097 0.0000338-0.0000133 0.0206275 0.0264911
           dz  0.0001318-0.0000320 0.0000727-0.0432997-0.0083303 0.2888081
 

   *** projected hessian written onto $hessian (projected), file=<hessian> ***

 dipole moment in principle axis system (a.u.) :
    -3.9406695642     1.1075379920    -0.0000000000
 norm :   4.09335034143802     

 rotational constants b for rotations around axis of inertia
 and optical intensities for (1 <-- 0) transition

   b   :     0.0822758208     0.0209014452     0.0191800739   (cm**(-1))
   b   :        2466.5671         626.6096         575.0042     (MHz)
  int. :    15.5288766139     1.2266404038     0.0000000000     (a.u.)

   x   :     0.9999998808     0.0004882244     0.0000000000
   y   :    -0.0004882244     0.9999998808     0.0000000000
   z   :     0.0000000000     0.0000000000     1.0000000000

   ***  normal modes written onto $vibrational normal modes, file=<vib_normal_modes>  ***

 keyword $vibrational reduced masses missing in file <control>


   ***  vibrational spectroscopic data written onto$vibrational spectrum   
        file=<vibspectrum>  ***

          ---------------------------------------------------
          NORMAL MODES and VIBRATIONAL FREQUENCIES (cm**(-1))
          ---------------------------------------------------

 imaginary wave numbers indicate a negative curvature of the energy surface.
 zero frequency modes have no physical meaning except being generators of
 translations and rotations. each vibrational normal mode - given in terms of
 cartesian displacement vectors of all atoms - has been normalized to unity.
 to obtain mass-weigthed normal coordinates in a.u. divide the tabulated
 modes by sqrt(reduced mass * 1822.88853).
 band intensities or cross sections refer to independent non-degenerate normal
 modes, that is, the intensities of degenerate modes have yet to be added.
 dDIP/dQ is the normal mode derivative of the dipole moment.


       mode               1        2        3        4        5        6

     frequency           0.00     0.00     0.00     0.00     0.00     0.00

     symmetry                                                             

        IR                -        -        -        -        -        - 
|dDIP/dQ|   (a.u.)     0.0000   0.0000   0.0000   0.0000   0.0000   0.0000
intensity (km/mol)       0.00     0.00     0.00     0.00     0.00     0.00
intensity (  %   )       0.00     0.00     0.00     0.00     0.00     0.00
 
       RAMAN              -        -        -        -        -        - 
 
  1   c           x   0.00556  0.21405  0.05466  0.05088  0.00917 -0.01754
                  y   0.00182  0.28732 -0.20017  0.01667  0.27365  0.08768
                  z  -0.20355 -0.10952  0.31394  0.24457  0.27183  0.30674
  2   s           x   0.00344  0.07008  0.14208  0.03153 -0.05184 -0.13083
                  y   0.00094  0.22746 -0.16382  0.00863  0.24828  0.04058
                  z  -0.28305 -0.01006  0.23647 -0.12254  0.13928  0.20921
  3   o           x   0.16368  0.08724  0.07743  0.01338 -0.09609 -0.18571
                  y   0.12487  0.08107 -0.08491  0.26030  0.29333  0.02626
                  z  -0.15921 -0.00301  0.19151 -0.12623  0.10816  0.16789
  4   u           x   0.00397  0.10566  0.12048  0.03631 -0.03676 -0.10283
                  y  -0.00298 -0.03952 -0.00168 -0.02726  0.13515 -0.16952
                  z   0.16282  0.00004  0.09023 -0.08161  0.04964  0.07866
  5   o           x  -0.08770  0.13097  0.13631  0.05149  0.00361 -0.04357
                  y  -0.07743 -0.17072  0.08375 -0.20100  0.01794 -0.33081
                  z   0.45900  0.00000  0.00000 -0.03041  0.00000 -0.00000
  6   o           x  -0.15667  0.06117  0.20173  0.05080 -0.00409 -0.06947
                  y  -0.12529  0.21654 -0.14719 -0.26419  0.13658 -0.06889
                  z  -0.15921 -0.00301  0.19151 -0.12623  0.10816  0.16789
  7   o           x   0.00174 -0.04605  0.21261  0.01592 -0.10105 -0.22222
                  y  -0.00325 -0.05812  0.00961 -0.02976  0.12726 -0.18416
                  z   0.01176  0.09938  0.03470 -0.46061 -0.07073  0.00029
  8   o           x   0.00614  0.25412  0.03032  0.05627  0.02615  0.01400
                  y  -0.00241 -0.00075 -0.02523 -0.02205  0.15158 -0.13901
                  z   0.27953 -0.09969  0.15665  0.29291  0.17636  0.16664
  9   h           x  -0.11094  0.21446  0.09390  0.06584  0.04687  0.03258
                  y  -0.08849  0.38900 -0.25465 -0.16726  0.23877  0.09425
                  z  -0.27105 -0.12230  0.34758  0.27836  0.30191  0.33993
 10   h           x   0.00643  0.27331  0.01867  0.05885  0.03429  0.02910
                  y   0.00075  0.21469 -0.15607  0.00691  0.24288  0.03053
                  z  -0.02369 -0.13849  0.28874  0.37851  0.28415  0.29351
 11   h           x   0.12234  0.23344  0.00338  0.03859 -0.02012 -0.05206
                  y   0.09367  0.29035 -0.20929  0.21468  0.35291  0.16353
                  z  -0.27105 -0.12230  0.34758  0.27836  0.30191  0.33993
 12   o           x   0.09660  0.14597  0.06480  0.02996 -0.04932 -0.11045
                  y   0.06648 -0.24866  0.11958  0.10074  0.10812 -0.27607
                  z   0.45900  0.00000  0.00000 -0.03041  0.00000  0.00000

reduced mass(g/mol)    20.143   11.591   15.116   12.223   14.047   21.326


       mode               7        8        9       10       11       12

     frequency          18.75    74.14   122.47   141.72   187.48   201.99

     symmetry            a"       a'       a"       a'       a'       a"  

        IR               YES      YES      YES      YES      YES      YES
|dDIP/dQ|   (a.u.)     0.0021   0.0009   0.0007   0.0016   0.0042   0.0017
intensity (km/mol)       8.07     1.39     0.77     4.81    31.85     5.08
intensity (  %   )       2.37     0.41     0.22     1.41     9.33     1.49
 
       RAMAN             YES      YES      YES      YES      YES      YES
 
  1   c           x  -0.00000  0.31719 -0.00000  0.36866  0.06346 -0.00000
                  y  -0.00000  0.23352 -0.00000  0.00665 -0.14143 -0.00000
                  z  -0.17071  0.00000  0.31372  0.00000 -0.00000  0.01122
  2   s           x   0.00000 -0.01285  0.00000  0.08260  0.44472  0.00000
                  y  -0.00000  0.09421 -0.00000 -0.10668  0.04844  0.00000
                  z  -0.17880 -0.00000 -0.09761 -0.00000  0.00000 -0.01684
  3   o           x   0.14767  0.00306 -0.03386  0.08357  0.39395 -0.09057
                  y   0.07818 -0.10261  0.20785 -0.21438  0.28186 -0.04744
                  z  -0.07284  0.00103 -0.10963 -0.00793 -0.04544 -0.07703
  4   u           x  -0.00000 -0.01184  0.00000 -0.04084 -0.08131 -0.00000
                  y   0.00000 -0.03461  0.00000  0.06036 -0.04079 -0.00000
                  z   0.08547 -0.00000  0.00124  0.00000 -0.00000  0.01160
  5   o           x   0.21966 -0.05751 -0.02562  0.01198 -0.09989  0.01015
                  y   0.01573  0.19749  0.13504 -0.21099  0.10358 -0.01769
                  z  -0.51271 -0.00017 -0.00092  0.00023  0.00282 -0.00941
  6   o           x  -0.14767  0.00306  0.03386  0.08357  0.39395  0.09057
                  y  -0.07818 -0.10261 -0.20785 -0.21438  0.28186  0.04744
                  z  -0.07284 -0.00103 -0.10963  0.00793  0.04544 -0.07703
  7   o           x   0.00000  0.16553 -0.00000 -0.14395 -0.18750  0.00000
                  y   0.00000 -0.01406 -0.00000  0.05659 -0.08584 -0.00000
                  z   0.14370  0.00000  0.30715  0.00000 -0.00000 -0.00374
  8   o           x  -0.00000 -0.16349  0.00000  0.03732 -0.12832 -0.00000
                  y   0.00000 -0.07283  0.00000  0.09892 -0.03481 -0.00000
                  z   0.27418 -0.00000 -0.22026 -0.00000 -0.00000  0.02446
  9   h           x  -0.11221  0.33661  0.08551  0.39225  0.03575  0.46757
                  y  -0.05203  0.34427 -0.22390  0.12356 -0.29827  0.16108
                  z  -0.24016 -0.00090  0.40056  0.00083  0.00053  0.30710
 10   h           x  -0.00000  0.44752 -0.00000  0.49870 -0.09603 -0.00000
                  y  -0.00000  0.07227 -0.00000 -0.15215  0.05318  0.00000
                  z  -0.02488  0.00000  0.40361 -0.00000  0.00000 -0.53601
 11   h           x   0.11221  0.33661 -0.08551  0.39225  0.03575 -0.46757
                  y   0.05203  0.34427  0.22390  0.12356 -0.29827 -0.16108
                  z  -0.24016  0.00090  0.40056 -0.00083 -0.00053  0.30710
 12   o           x  -0.21966 -0.05751  0.02562  0.01198 -0.09989 -0.01015
                  y  -0.01573  0.19749 -0.13504 -0.21099  0.10358  0.01769
                  z  -0.51271  0.00017 -0.00092 -0.00023 -0.00282 -0.00941

reduced mass(g/mol)    15.821    5.791    6.785    7.783   18.069    1.566


       mode              13       14       15       16       17       18

     frequency         216.04   238.92   246.14   254.42   290.77   312.15

     symmetry            a"       a"       a"       a'       a'       a"  

        IR               YES      YES      YES      YES      YES      YES
|dDIP/dQ|   (a.u.)     0.0039   0.0018   0.0005   0.0016   0.0050   0.0008
intensity (km/mol)      26.87     5.49     0.46     4.69    44.49     1.12
intensity (  %   )       7.88     1.61     0.13     1.37    13.04     0.33
 
       RAMAN             YES      YES      YES      YES      YES      YES
 
  1   c           x   0.00000  0.00000  0.00000 -0.10784 -0.03291  0.00000
                  y  -0.00000  0.00000 -0.00000  0.02182  0.04344 -0.00000
                  z  -0.04010 -0.05184 -0.00898 -0.00000 -0.00000 -0.22398
  2   s           x   0.00000 -0.00000 -0.00000  0.04668 -0.03359  0.00000
                  y   0.00000 -0.00000 -0.00000  0.07986  0.02083 -0.00000
                  z   0.05273  0.00943  0.01007  0.00000  0.00000  0.10010
  3   o           x  -0.03822  0.14473 -0.13336  0.05364 -0.03171 -0.16288
                  y  -0.02942  0.09586 -0.08125  0.06158 -0.04476  0.21290
                  z   0.00273  0.10442 -0.08080  0.00067  0.00479 -0.01604
  4   u           x  -0.00000  0.00000  0.00000 -0.01725  0.08556 -0.00000
                  y  -0.00000 -0.00000  0.00000  0.02423  0.01746 -0.00000
                  z  -0.10735 -0.01321  0.00687  0.00000 -0.00000  0.00673
  5   o           x  -0.07896 -0.02430 -0.09504  0.05264  0.11746  0.00356
                  y  -0.06766  0.08707  0.50488 -0.33991  0.00126 -0.00639
                  z   0.08285  0.01057 -0.00572 -0.00000  0.00247 -0.00380
  6   o           x   0.03822 -0.14473  0.13336  0.05364 -0.03171  0.16288
                  y   0.02942 -0.09586  0.08125  0.06158 -0.04476 -0.21290
                  z   0.00273  0.10442 -0.08080 -0.00067 -0.00479 -0.01604
  7   o           x  -0.00000 -0.00000 -0.00000  0.57632 -0.63405  0.00000
                  y  -0.00000 -0.00000  0.00000  0.10749 -0.07384  0.00000
                  z   0.66783 -0.02209 -0.21731 -0.00000  0.00000  0.01692
  8   o           x  -0.00000  0.00000  0.00000 -0.51489 -0.71026  0.00000
                  y  -0.00000 -0.00000  0.00000 -0.08659 -0.17975  0.00000
                  z   0.69329  0.02059  0.27846  0.00000 -0.00000 -0.03558
  9   h           x  -0.03213  0.42343 -0.25726 -0.13234 -0.04066 -0.19390
                  y   0.04918  0.21085 -0.07364 -0.07998  0.02336  0.35740
                  z  -0.06812  0.20715 -0.17334 -0.00327 -0.00174 -0.40215
 10   h           x  -0.00000  0.00000  0.00000 -0.20951 -0.04791  0.00000
                  y   0.00000 -0.00000 -0.00000  0.14299  0.05668 -0.00000
                  z  -0.03513 -0.60346  0.28623 -0.00000 -0.00000 -0.37383
 11   h           x   0.03213 -0.42343  0.25726 -0.13234 -0.04066  0.19390
                  y  -0.04918 -0.21085  0.07364 -0.07998  0.02336 -0.35740
                  z  -0.06812  0.20715 -0.17334  0.00327  0.00174 -0.40215
 12   o           x   0.07896  0.02430  0.09504  0.05264  0.11746 -0.00356
                  y   0.06766 -0.08707 -0.50488 -0.33991  0.00126  0.00639
                  z   0.08285  0.01057 -0.00572  0.00000 -0.00247 -0.00380

reduced mass(g/mol)    18.335    2.574   11.735   14.603   17.557    4.069


       mode              19       20       21       22       23       24

     frequency         403.46   477.49   506.77   538.97   668.06   845.25

     symmetry            a'       a"       a'       a'       a'       a'  

        IR               YES      YES      YES      YES      YES      YES
|dDIP/dQ|   (a.u.)     0.0035   0.0033   0.0107   0.0033   0.0043   0.0034
intensity (km/mol)      21.40    19.25   204.89    19.16    33.42    21.09
intensity (  %   )       6.27     5.64    60.05     5.62     9.79     6.18
 
       RAMAN             YES      YES      YES      YES      YES      YES
 
  1   c           x   0.21525  0.00000  0.01328 -0.01952 -0.19163 -0.03448
                  y  -0.13316 -0.00000 -0.00679  0.03431  0.37359  0.00946
                  z   0.00000 -0.00019  0.00000  0.00000  0.00000  0.00000
  2   s           x  -0.03465 -0.00000 -0.08685 -0.20625  0.07829 -0.03080
                  y  -0.14069 -0.00000 -0.03463 -0.09429 -0.19778 -0.00014
                  z  -0.00000 -0.00631  0.00000  0.00000  0.00000 -0.00000
  3   o           x  -0.11703  0.00488  0.08525  0.24259  0.00627  0.00689
                  y   0.21876  0.00148  0.04001  0.08631  0.01977 -0.00795
                  z  -0.05935  0.00389  0.14089  0.40819 -0.05194 -0.08050
  4   u           x   0.00649 -0.00000 -0.09015  0.01564 -0.00193  0.00398
                  y  -0.00030 -0.00000 -0.01746  0.00224  0.00059 -0.01003
                  z   0.00000  0.03516 -0.00000 -0.00000 -0.00000 -0.00000
  5   o           x  -0.00156 -0.65139  0.63817 -0.13955  0.00426  0.05082
                  y  -0.00730 -0.12566  0.12279 -0.02728  0.00069  0.01176
                  z  -0.00003 -0.24273 -0.07631  0.02131 -0.00188 -0.15332
  6   o           x  -0.11703 -0.00488  0.08525  0.24259  0.00627  0.00689
                  y   0.21876 -0.00148  0.04001  0.08631  0.01977 -0.00795
                  z   0.05935  0.00389 -0.14089 -0.40819  0.05194  0.08050
  7   o           x   0.02959  0.00000  0.01612 -0.00379  0.00426  0.08182
                  y   0.00159  0.00000  0.05641 -0.04801  0.00235 -0.58862
                  z   0.00000 -0.01635  0.00000 -0.00000  0.00000  0.00000
  8   o           x  -0.05229  0.00000  0.02912 -0.03274  0.00377 -0.17249
                  y  -0.02463 -0.00000 -0.05074  0.04299 -0.01911  0.72360
                  z  -0.00000 -0.01649  0.00000 -0.00000 -0.00000  0.00000
  9   h           x   0.29791  0.00058  0.03899  0.04883 -0.11959 -0.00822
                  y   0.15262 -0.00489  0.09851  0.31588  0.60397  0.05572
                  z   0.01658  0.00081  0.00348  0.01122  0.02072  0.01051
 10   h           x   0.53475  0.00000  0.13057  0.31109  0.02580  0.07470
                  y  -0.51945 -0.00000 -0.14986 -0.36468  0.10982 -0.11554
                  z   0.00000  0.00216  0.00000  0.00000 -0.00000 -0.00000
 11   h           x   0.29791 -0.00058  0.03899  0.04883 -0.11959 -0.00822
                  y   0.15262  0.00489  0.09851  0.31588  0.60397  0.05572
                  z  -0.01658  0.00081 -0.00348 -0.01122 -0.02072 -0.01051
 12   o           x  -0.00156  0.65139  0.63817 -0.13955  0.00426  0.05082
                  y  -0.00730  0.12566  0.12279 -0.02728  0.00069  0.01176
                  z   0.00003 -0.24273  0.07631 -0.02131  0.00188  0.15332

reduced mass(g/mol)     4.391   16.274   17.082   10.363    4.454   15.653


       mode              25       26       27       28       29       30

     frequency         914.73   916.57   938.26   971.90   999.26  1008.07

     symmetry            a'       a"       a'       a'       a'       a"  

        IR               YES      YES      YES      YES      YES      YES
|dDIP/dQ|   (a.u.)     0.0139   0.0020   0.0115   0.0094   0.0083   0.0098
intensity (km/mol)     341.21     7.18   233.46   155.63   122.40   169.29
intensity (  %   )     100.00     2.10    68.42    45.61    35.87    49.61
 
       RAMAN             YES      YES      YES      YES      YES      YES
 
  1   c           x   0.10611  0.00000  0.12699  0.07092 -0.11433 -0.00000
                  y   0.04776 -0.00000  0.08367  0.05637 -0.08845 -0.00000
                  z   0.00000  0.15118 -0.00000 -0.00000  0.00000 -0.10092
  2   s           x   0.03478 -0.00000  0.05175 -0.06451  0.19586 -0.00000
                  y  -0.03622  0.00000 -0.05782 -0.03995  0.06479  0.00000
                  z   0.00000  0.00574  0.00000 -0.00000  0.00000  0.35918
  3   o           x  -0.05986  0.04547 -0.08243  0.03674 -0.16614  0.22345
                  y   0.01202 -0.02069  0.03214  0.02010 -0.03931  0.01750
                  z   0.07580 -0.04597  0.10169 -0.05737  0.17469 -0.34911
  4   u           x  -0.01161  0.00000  0.00242 -0.00759 -0.00258 -0.00000
                  y   0.06185 -0.00000 -0.01264 -0.00080 -0.00046  0.00000
                  z   0.00000 -0.00001  0.00000 -0.00000  0.00000  0.00293
  5   o           x   0.00436 -0.00033 -0.00108  0.06822  0.01618 -0.00176
                  y  -0.00998 -0.00012  0.00205  0.01300  0.00313 -0.00036
                  z  -0.03679 -0.00009 -0.02337  0.55939  0.08335 -0.00104
  6   o           x  -0.05986 -0.04547 -0.08243  0.03674 -0.16614 -0.22345
                  y   0.01202  0.02069  0.03214  0.02010 -0.03931 -0.01750
                  z  -0.07580 -0.04597 -0.10169  0.05737 -0.17469 -0.34911
  7   o           x   0.06895 -0.00000 -0.00913  0.02170  0.00793  0.00000
                  y  -0.51419  0.00000  0.08259 -0.12233 -0.03945 -0.00000
                  z  -0.00000  0.00000 -0.00000  0.00000 -0.00000 -0.00814
  8   o           x   0.09012 -0.00000 -0.02558 -0.02262 -0.00820 -0.00000
                  y  -0.37212  0.00000  0.09550  0.11111  0.04095  0.00000
                  z  -0.00000 -0.00023 -0.00000  0.00000 -0.00000 -0.00873
  9   h           x  -0.04236 -0.29108 -0.07880 -0.05470  0.09718  0.21351
                  y  -0.27681  0.59183 -0.38306 -0.23501  0.40594 -0.41467
                  z  -0.05206 -0.13358 -0.06972 -0.04247  0.07054  0.11913
 10   h           x  -0.30666  0.00000 -0.37211 -0.20851  0.31257  0.00000
                  y   0.53482 -0.00000  0.68007  0.38546 -0.58591 -0.00000
                  z  -0.00000 -0.24945  0.00000  0.00000 -0.00000  0.23013
 11   h           x  -0.04236  0.29108 -0.07880 -0.05470  0.09718 -0.21351
                  y  -0.27681 -0.59183 -0.38306 -0.23501  0.40594  0.41467
                  z   0.05206 -0.13358  0.06972  0.04247 -0.07054  0.11913
 12   o           x   0.00436  0.00033 -0.00108  0.06822  0.01618  0.00176
                  y  -0.00998  0.00012  0.00205  0.01300  0.00313  0.00036
                  z   0.03679 -0.00009  0.02337 -0.55939 -0.08335 -0.00104

reduced mass(g/mol)     8.735    1.399    2.300   11.393    4.617   10.291


       mode              31       32       33       34       35       36

     frequency        1286.00  1437.05  1447.20  3042.48  3150.39  3160.44

     symmetry            a'       a'       a"       a'       a"       a'  

        IR               YES      YES      YES      YES      YES      YES
|dDIP/dQ|   (a.u.)     0.0032   0.0013   0.0017   0.0038   0.0024   0.0004
intensity (km/mol)      18.40     2.99     4.88    26.27    10.62     0.29
intensity (  %   )       5.39     0.88     1.43     7.70     3.11     0.09
 
       RAMAN             YES      YES      YES      YES      YES      YES
 
  1   c           x  -0.05080  0.05687  0.00000  0.01542  0.00000  0.08824
                  y   0.12796  0.01739 -0.00000 -0.03913  0.00000  0.03517
                  z  -0.00000  0.00000 -0.06380 -0.00000 -0.09397  0.00000
  2   s           x   0.00501  0.00603  0.00000 -0.00002  0.00000  0.00037
                  y  -0.00043  0.00454  0.00000  0.00018  0.00000  0.00045
                  z  -0.00000  0.00000 -0.00407 -0.00000 -0.00073  0.00000
  3   o           x  -0.00477 -0.00169  0.00048  0.00001 -0.00013 -0.00017
                  y  -0.00105 -0.00248 -0.00032 -0.00004 -0.00015 -0.00012
                  z   0.00404 -0.00067  0.00023 -0.00022  0.00045  0.00007
  4   u           x  -0.00011 -0.00008 -0.00000 -0.00001 -0.00000 -0.00001
                  y   0.00050  0.00022  0.00000  0.00003 -0.00000 -0.00003
                  z  -0.00000  0.00000  0.00002  0.00000 -0.00001 -0.00000
  5   o           x   0.00028  0.00018 -0.00001  0.00004 -0.00000 -0.00001
                  y  -0.00006 -0.00001  0.00001  0.00000  0.00000  0.00000
                  z   0.00046  0.00025 -0.00004  0.00004  0.00000 -0.00000
  6   o           x  -0.00477 -0.00169 -0.00048  0.00001  0.00013 -0.00017
                  y  -0.00105 -0.00248  0.00032 -0.00004  0.00015 -0.00012
                  z  -0.00404  0.00067  0.00023  0.00022  0.00045 -0.00007
  7   o           x   0.00014  0.00004  0.00000  0.00002  0.00000  0.00003
                  y  -0.00183 -0.00077 -0.00000 -0.00009  0.00000  0.00006
                  z   0.00000 -0.00000  0.00006 -0.00000  0.00002  0.00000
  8   o           x   0.00223  0.00112 -0.00000  0.00000  0.00000  0.00010
                  y  -0.00434 -0.00189 -0.00000 -0.00036  0.00000  0.00038
                  z   0.00000  0.00000 -0.00089 -0.00000  0.00003 -0.00000
  9   h           x   0.08904 -0.53738  0.24965 -0.31671 -0.40000 -0.21631
                  y  -0.53171 -0.02246  0.39325  0.05269  0.07259  0.04528
                  z   0.16248 -0.38569  0.07448  0.48038  0.57457  0.33959
 10   h           x   0.39911  0.25397  0.00000  0.45072 -0.00000 -0.62540
                  y  -0.43305 -0.23625 -0.00000  0.35692 -0.00000 -0.52108
                  z   0.00000 -0.00000  0.74220 -0.00000 -0.01952  0.00000
 11   h           x   0.08904 -0.53738 -0.24965 -0.31671  0.40000 -0.21631
                  y  -0.53171 -0.02246 -0.39325  0.05269 -0.07259  0.04528
                  z  -0.16248  0.38569  0.07448 -0.48038  0.57457 -0.33959
 12   o           x   0.00028  0.00018  0.00001  0.00004  0.00000 -0.00001
                  y  -0.00006 -0.00001 -0.00001  0.00000 -0.00000  0.00000
                  z  -0.00046 -0.00025 -0.00004 -0.00004  0.00000  0.00000

reduced mass(g/mol)     1.219    1.049    1.053    1.027    1.105    1.107
 

         **************************************************************
         *                                                            *
         *  zero point VIBRATIONAL energy  :      0.0569938  Hartree  *
         *    SCF-energy                   :  -1366.1234828           *
         *    SCF + E(vib0)                :  -1366.0664890           *
         *                                                            *
         **************************************************************




 time elapsed for vibrational analysis     0.14 sec


    ------------------------------------------------------------------------
         total  cpu-time :  2 hours 53 minutes and  4 seconds
         total wall-time : 14 minutes and 27 seconds
    ------------------------------------------------------------------------

   ****  force : all done  ****


    2019-12-03 16:51:51.895 

aoforce ended normally 
