   This run of MOLCAS is using the pymolcas driver

                             OPE
                             OPE          NMOL  CASOP  ENMOLC A   SO
                 OPE        NMOLC        AS  OP EN  MO LC     AS  OP
                OPENM       OL CA        SO  PE NM  OL CA     SOP EN
                OP EN      MO   LC       AS  OP ENMOL  CASO   PENMOL
                OP  EN     MO   LC       AS  OP EN     MO     LC ASO
               OP   E  NMOL  C  AS       OP  EN MO     LC     AS  OP
               OP  E   NMO   LC AS        OPEN  MO     LCASOP EN   M
               O  PEN   MO  LCA  SO
            OPE   NMO   L   CAS    OP
        OPENMOL  CASOP     ENMOL   CASOPE
     OPENMOLCA   SOPENMOLCASOPEN   MOLCASOPE
    OPENMOLCAS   OP           EN   MOL    CAS
    OPENMOLCAS       OP  ENM        O     LCA
    OPENMOLCAS    OPEN  MOLCASO     P  E  NMO
    OPENMOLCAS     OP               E  N  MOL
    OPENMOLCA   SO           PENM   O  L  CAS    OPEN    MO    LCAS
    OPENMOLCA   SOP           ENM   O  L  CAS   OP  EN  MOLC  AS   O
    OPENMOLCA   SOPE           NM      O  LCA   S      OP  EN MO
    OPENMOLC                AS         O  PEN   M      OL  CA  SOPE
    OPENMO        LCASOPE  NMOL        C  ASO   P      ENMOLC     AS
    OPE     NMO      LCA  SO     P     E   NM   OL  CA SO  PE N   MO
          OPENMOLCA            SOPE   NMO        LCAS  O    P  ENMO
     OPENMOLCASOPENMOLCASOPENMOLCASOPENMOLCA
        OPENMOLCASOPENMOLCASOPENMOLCASOPE
            OPENMOLCASOPENMOLCASOPENM
               OPENMOLCASOPENMOLCA        version: 18.09
                   OPENMOLCASO
                       OPE                tag: 259-g52797e1-dirty

 OpenMolcas is free software; you can redistribute it and/or modify it
 under the terms of the GNU Lesser General Public License version 2.1.
 OpenMolcas is distributed in the hope that it will be useful, but it
 is provided "as is" and without any express or implied warranties.
 For more details see the full text of the license in the file
 LICENSE or in <http://www.gnu.org/licenses/>.

                 Copyright (C) The OpenMolcas Authors
           For the author list and the recommended citation,
                   consult the file CONTRIBUTORS.md

           *************************************************
           * pymolcas version py2.05                       *
           *   build e639e37c9a57315123c35f99e509df06      *
           *   (after the EMIL interpreter by V. Veryazov) *
           *************************************************

configuration info
------------------
C Compiler ID: Intel
C flags: -I/share/apps/fftw/3.3.8/include -std=gnu99 -mcmodel=large -qopenmp
Fortran Compiler ID: Intel
Fortran flags: -fpp -mcmodel=large -i8 -r8 -heap-arrays -qopenmp
Definitions: _MOLCAS_;_I8_;_LINUX_;_MKL_;_FDE_
Parallel: OFF (GA=OFF)


   -------------------------------------------------------------------------------------------------------
  |
  |           Project: UO2_C6H5SO2_SO2-m1-triplet.casscf.MB
  |    Submitted from: /home/vallet/John-sulfinate/U-complexes/UO2_C6H5SO2_SO2-m1/optg-freq-pbe0/SO-XMS
  |      Scratch area: /state/partition2/vallet/656532.phlam-s-sakura/UO2_C6H5SO2_SO2-m1-triplet.casscf.MB
  |   Save outputs to: /home/vallet/John-sulfinate/U-complexes/UO2_C6H5SO2_SO2-m1/optg-freq-pbe0/SO-XMS
  |            Molcas: /home/pcmt/OpenMolcas/OpenMolcas-20190114
  |
  | Scratch area is empty
  |
  |    MOLCAS_DRIVER = /home/pcmt/OpenMolcas/OpenMolcas-20190114/sbin/pymolcas
  |   MOLCAS_LICENSE = /home/pcmt/molcas/license
  |    MOLCAS_MOLDEN = ON
  |    MOLCAS_NPROCS = 1
  |    MOLCAS_SOURCE = /home/pcmt/OpenMolcas/OpenMolcas-20190114
  | MOLCAS_STRUCTURE = 0
  |
   -------------------------------------------------------------------------------------------------------

++ ---------   Input file   ---------

&GATEWAY
   COORD=$HomeDir/UO2_C6H5SO2_SO2-m1.pbe0.optg-zaxis.xyz
   BASIS=ANO-RCC-MB
   Group=Nosym
   ANGM=0.0 0.0 0.0
   RICD

>>> COPY $Project.RunFile $HomeDir

&SEWARD

&RASSCF
   Spin=3
   Symmetry=1
   Nactel=2 0 0
   Inactive=106
   Ras2=5
   CIRoots=4 4 1
   Lumorb

>>> COPY $Project.RasOrb $HomeDir/$Project.RasOrb_triplets

>>> COPY $Project.rasscf.molden $HomeDir/$Project.rasscf_triplets.molden

>>> COPY $Project.RasOrb INPORB

&RASSCF
   Spin=1
   Symmetry=1
   Nactel=2 0 0
   Inactive=106
   Ras2=5
   CIRoots=4 4 1

>>> COPY $Project.RasOrb $HomeDir/$Project.RasOrb_singlets

>>> COPY $Project.rasscf.molden $HomeDir/$Project.rasscf_singlets.molden

-- ----------------------------------

--- Start Module: gateway at Tue Dec 17 19:34:13 2019 ---
 
()()()()()()()()()()()()()()()()()()()()()()()()()()()()()()()()()()()()()()()()()()()()()()()()()()

                                              &GATEWAY

                                   only a single process is used
                       available to each process: 32 GB of memory, 8 threads
()()()()()()()()()()()()()()()()()()()()()()()()()()()()()()()()()()()()()()()()()()()()()()()()()()
 
 
++    Symmetry information:
      ---------------------
 
                    Character Table for C1 
 
                             E  
                    a        1  x, y, xy, Rz, z, xz, Ry, yz, Rx, I
--
 
 
++    Basis set information:
      ----------------------
 
 
      Basis set label: C.ANO-RCC...2S1P.
 
      Electronic valence basis set:
      ------------------
      Associated Effective Charge   6.000000 au
      Associated Actual Charge      6.000000 au
      Nuclear Model: Point charge
 
      Shell  nPrim  nBasis  Cartesian Spherical Contaminant
         s      14       2        X                  
         p       9       1        X                  
 
 
      Basis set label: S.ANO-RCC...3S2P.
 
      Electronic valence basis set:
      ------------------
      Associated Effective Charge  16.000000 au
      Associated Actual Charge     16.000000 au
      Nuclear Model: Point charge
 
      Shell  nPrim  nBasis  Cartesian Spherical Contaminant
         s      17       3        X                  
         p      12       2        X                  
 
 
      Basis set label: O.ANO-RCC...2S1P.
 
      Electronic valence basis set:
      ------------------
      Associated Effective Charge   8.000000 au
      Associated Actual Charge      8.000000 au
      Nuclear Model: Point charge
 
      Shell  nPrim  nBasis  Cartesian Spherical Contaminant
         s      14       2        X                  
         p       9       1        X                  
 
 
      Basis set label: U.ANO-RCC...7S6P4D2F.
 
      Electronic valence basis set:
      ------------------
      Associated Effective Charge  92.000000 au
      Associated Actual Charge     92.000000 au
      Nuclear Model: Point charge
 
      Shell  nPrim  nBasis  Cartesian Spherical Contaminant
         s      26       7        X                  
         p      23       6        X                  
         d      17       4                 X         
         f      13       2                 X         
 
 
      Basis set label: O.ANO-RCC...2S1P.
 
      Electronic valence basis set:
      ------------------
      Associated Effective Charge   8.000000 au
      Associated Actual Charge      8.000000 au
      Nuclear Model: Point charge
 
      Shell  nPrim  nBasis  Cartesian Spherical Contaminant
         s      14       2        X                  
         p       9       1        X                  
 
 
      Basis set label: S.ANO-RCC...3S2P.
 
      Electronic valence basis set:
      ------------------
      Associated Effective Charge  16.000000 au
      Associated Actual Charge     16.000000 au
      Nuclear Model: Point charge
 
      Shell  nPrim  nBasis  Cartesian Spherical Contaminant
         s      17       3        X                  
         p      12       2        X                  
 
 
      Basis set label: O.ANO-RCC...2S1P.
 
      Electronic valence basis set:
      ------------------
      Associated Effective Charge   8.000000 au
      Associated Actual Charge      8.000000 au
      Nuclear Model: Point charge
 
      Shell  nPrim  nBasis  Cartesian Spherical Contaminant
         s      14       2        X                  
         p       9       1        X                  
 
 
      Basis set label: C.ANO-RCC...2S1P.
 
      Electronic valence basis set:
      ------------------
      Associated Effective Charge   6.000000 au
      Associated Actual Charge      6.000000 au
      Nuclear Model: Point charge
 
      Shell  nPrim  nBasis  Cartesian Spherical Contaminant
         s      14       2        X                  
         p       9       1        X                  
 
 
      Basis set label: H.ANO-RCC...1S.
 
      Electronic valence basis set:
      ------------------
      Associated Effective Charge   1.000000 au
      Associated Actual Charge      1.000000 au
      Nuclear Model: Point charge
 
      Shell  nPrim  nBasis  Cartesian Spherical Contaminant
         s       8       1        X                  
--
 
 
++    Molecular structure info:
      -------------------------
 
                    ************************************************ 
                    **** Cartesian Coordinates / Bohr, Angstrom **** 
                    ************************************************ 
 
     Center  Label                x              y              z                     x              y              z
        1      C1               2.499786       7.030121       2.927715              1.322830       3.720180       1.549280
        2      S2               1.982795       5.587863      -0.143695              1.049250       2.956970      -0.076040
        3      O3               3.574852       3.178406       0.018878              1.891730       1.681940       0.009990
        4      U4               0.000000       0.000000       0.000000              0.000000       0.000000       0.000000
        5      O5              -3.616331      -3.192654       0.027344             -1.913680      -1.689480       0.014470
        6      S6              -1.989712      -5.582969       0.037360             -1.052910      -2.954380       0.019770
        7      O7               0.782366      -4.761789       0.027666              0.414010      -2.519830       0.014640
        8      O8              -0.771670       4.720271       0.022374             -0.408350       2.497860       0.011840
        9      O9              -0.004252      -0.025606      -3.402641             -0.002250      -0.013550      -1.800600
       10      O10              0.000000       0.000000       3.421028              0.000000       0.000000       1.810330
       11      C11              3.346781       9.503811       2.997314              1.771040       5.029200       1.586110
       12      C12              3.769134      10.673154       5.311491              1.994540       5.647990       2.810720
       13      C13              3.338428       9.349061       7.530313              1.766620       4.947310       3.984870
       14      C14              2.486143       6.862522       7.439776              1.315610       3.631490       3.936960
       15      C15              2.060595       5.685732       5.140244              1.090420       3.008760       2.720100
       16      H16              3.674648      10.509466       1.239868              1.944540       5.561370       0.656110
       17      H17              4.432844      12.610483       5.379162              2.345760       6.673180       2.846530
       18      H18              3.666409      10.252067       9.340274              1.940180       5.425160       4.942660
       19      H19              2.151491       5.834076       9.180006              1.138520       3.087260       4.857850
       20      H20              1.394410       3.747724       5.034041              0.737890       1.983210       2.663900
 
                    ************************************************* 
                    **** InterNuclear Distances / Bohr, Angstrom **** 
                    ************************************************* 
 
     Atom centers         Bohr        Angstrom
   19 H19      14 C14     2.048925        1.084244
   17 H17      12 C12     2.048983        1.084275
   18 H18      13 C13     2.049134        1.084355
   16 H16      11 C11     2.051208        1.085453
   20 H20      15 C15     2.052062        1.085905
   11 C11       1 C1      2.615604        1.384118
   15 C15      14 C14     2.617971        1.385371
   13 C13      12 C12     2.619523        1.386192
   15 C15       1 C1      2.625939        1.389587
   12 C12      11 C11     2.627007        1.390152
   14 C14      13 C13     2.630108        1.391793
    7 O7        6 S6      2.891166        1.529939
    6 S6        5 O5      2.891296        1.530008
    3 O3        2 S2      2.892501        1.530645
    8 O8        2 S2      2.892641        1.530720
    9 O9        4 U4      3.402740        1.800652
   10 O10       4 U4      3.421028        1.810330
    2 S2        1 C1      3.432338        1.816315
   16 H16       1 C1      4.041654        2.138751
   19 H19      15 C15     4.043507        2.139732
   18 H18      12 C12     4.052031        2.144243
   20 H20       1 C1      4.053715        2.145133
   17 H17      13 C13     4.057347        2.147056
   19 H19      13 C13     4.060225        2.148579
   18 H18      14 C14     4.061273        2.149133
   17 H17      11 C11     4.062530        2.149798
   16 H16      12 C12     4.076007        2.156930
   20 H20      14 C14     4.084288        2.161312
   20 H20      10 O10     4.311801        2.281707
   14 C14       1 C1      4.515194        2.389338
   12 C12       1 C1      4.534900        2.399766
   13 C13      11 C11     4.535648        2.400161
   14 C14      12 C12     4.549350        2.407412
   15 C15      13 C13     4.556892        2.411403
   15 C15      11 C11     4.563348        2.414820
    8 O8        3 O3      4.611899        2.440512
    7 O7        5 O5      4.670194        2.471360
   19 H19      18 H18     4.673254        2.472980
   18 H18      17 H17     4.673324        2.473016
   20 H20      19 H19     4.702665        2.488543
   17 H17      16 H16     4.703497        2.488983
    8 O8        4 U4      4.782984        2.531046
    4 U4        3 O3      4.783533        2.531336
    5 O5        4 U4      4.824069        2.552787
    7 O7        4 U4      4.825712        2.553657
    3 O3        1 C1      4.944978        2.616770
    8 O8        1 C1      4.947609        2.618162
   11 C11       2 S2      5.202022        2.752791
   13 C13       1 C1      5.221562        2.763132
   14 C14      11 C11     5.239521        2.772635
   15 C15      12 C12     5.274733        2.791269
   15 C15       2 S2      5.285418        2.796923
   16 H16       2 S2      5.385052        2.849647
   20 H20       3 O3      5.498210        2.909527
   20 H20       2 S2      5.526415        2.924453
   20 H20       8 O8      5.545679        2.934647
--
 
 
            Nuclear Potential Energy           2942.98495901 au
 
--- Stop Module: gateway at Tue Dec 17 19:35:50 2019 /rc=_RC_ALL_IS_WELL_ ---
*** files: UO2_C6H5SO2_SO2-m1-triplet.casscf.MB.RICDLib xmldump
    saved to directory /home/vallet/John-sulfinate/U-complexes/UO2_C6H5SO2_SO2-m1/optg-freq-pbe0/SO-XMS
--- Module gateway spent 1 minute 36 seconds ---

>>> COPY UO2_C6H5SO2_SO2-m1-triplet.casscf.MB.RunFile /home/vallet/John-sulfinate/U-complexes/UO2_C6H5SO2_SO2-m1/optg-freq-pbe0/SO-XMS

--- Start Module: seward at Tue Dec 17 19:35:50 2019 ---
 
()()()()()()()()()()()()()()()()()()()()()()()()()()()()()()()()()()()()()()()()()()()()()()()()()()

                                              &SEWARD

                                   only a single process is used
                       available to each process: 32 GB of memory, 8 threads
()()()()()()()()()()()()()()()()()()()()()()()()()()()()()()()()()()()()()()()()()()()()()()()()()()
 
               SEWARD will generate:
                  Multipole Moment integrals up to order  2
                  Kinetic Energy integrals
                  Nuclear Attraction integrals (point charge)
                  One-Electron Hamiltonian integrals
                  Velocity integrals
                  Relativistic Douglas-Kroll-Hess integrals:
                    - Parametrization         : EXP
                    - DKH order of Hamiltonian: 2
                    - DKH order of Properties : 0
                         - multipole moment operators
                         - electric potential operators
                         - contact operators
                  Orbital angular momentum around ( 0.0000  0.0000  0.0000 )
                  Atomic mean-field integrals
                  RI decomposed two-electron repulsion integrals stored Cholesky style
                   - acCD auxiliary basis
                   - CD Threshold:   0.10E-03
 
                   Integrals are discarded if absolute value <: 0.10E-13
                   Integral cutoff threshold is set to       <: 0.10E-15
 
            Nuclear Potential Energy           2942.98495901 au
 
 
      Basis set specifications :
      Symmetry species         a  
      Basis functions          142
 
 
  Input file to MOLDEN was generated!
 
--- Stop Module: seward at Tue Dec 17 19:37:33 2019 /rc=_RC_ALL_IS_WELL_ ---
*** files: UO2_C6H5SO2_SO2-m1-triplet.casscf.MB.GssOrb UO2_C6H5SO2_SO2-m1-triplet.casscf.MB.guessorb.h5 UO2_C6H5SO2_SO2-m1-triplet.casscf.MB.guessorb.molden xmldump
    saved to directory /home/vallet/John-sulfinate/U-complexes/UO2_C6H5SO2_SO2-m1/optg-freq-pbe0/SO-XMS
--- Module seward spent 1 minute 43 seconds ---

*** symbolic link created: INPORB -> UO2_C6H5SO2_SO2-m1-triplet.casscf.MB.GssOrb
--- Start Module: rasscf at Tue Dec 17 19:37:33 2019 ---
 
()()()()()()()()()()()()()()()()()()()()()()()()()()()()()()()()()()()()()()()()()()()()()()()()()()

                                              &RASSCF

                                   only a single process is used
                       available to each process: 32 GB of memory, 8 threads
()()()()()()()()()()()()()()()()()()()()()()()()()()()()()()()()()()()()()()()()()()()()()()()()()()
 
 
      Header of the ONEINT file:
      --------------------------
      
      Integrals generated by seward 4.2.0  , Tue Dec 17 19:35:50 2019
 
 
      OrdInt status: non-squared
 
 
      Cartesian coordinates in Angstrom:
      -----------------------------------------------------
      No.  Label        X            Y            Z        
      -----------------------------------------------------
       1   C1         1.32283000   3.72018000   1.54928000
       2   S2         1.04925000   2.95697000  -0.07604000
       3   O3         1.89173000   1.68194000   0.00999000
       4   U4         0.00000000   0.00000000   0.00000000
       5   O5        -1.91368000  -1.68948000   0.01447000
       6   S6        -1.05291000  -2.95438000   0.01977000
       7   O7         0.41401000  -2.51983000   0.01464000
       8   O8        -0.40835000   2.49786000   0.01184000
       9   O9        -0.00225000  -0.01355000  -1.80060000
      10   O10        0.00000000   0.00000000   1.81033000
      11   C11        1.77104000   5.02920000   1.58611000
      12   C12        1.99454000   5.64799000   2.81072000
      13   C13        1.76662000   4.94731000   3.98487000
      14   C14        1.31561000   3.63149000   3.93696000
      15   C15        1.09042000   3.00876000   2.72010000
      16   H16        1.94454000   5.56137000   0.65611000
      17   H17        2.34576000   6.67318000   2.84653000
      18   H18        1.94018000   5.42516000   4.94266000
      19   H19        1.13852000   3.08726000   4.85785000
      20   H20        0.73789000   1.98321000   2.66390000
      -----------------------------------------------------
      Nuclear repulsion energy = 2942.98495901
 
++    Wave function specifications:
      -----------------------------
 
      Number of closed shell electrons         212
      Number of electrons in active shells       2
      Max number of holes in RAS1 space          0
      Max nr of electrons in RAS3 space          0
      Number of inactive orbitals              106
      Number of active orbitals                  5
      Number of secondary orbitals              31
      Spin quantum number                      1.0
      State symmetry                             1
--
 
++    Orbital specifications:
      -----------------------
 
      Symmetry species                           1
                                                 a
      Frozen orbitals                            0
      Inactive orbitals                        106
      Active orbitals                            5
      RAS1 orbitals                              0
      RAS2 orbitals                              5
      RAS3 orbitals                              0
      Secondary orbitals                        31
      Deleted orbitals                           0
      Number of basis functions                142
--
 
++    CI expansion specifications:
      ----------------------------
 
      Number of CSFs                            10
      Number of determinants                    10
      Number of root(s) required                 4
      Root chosen for geometry opt.              4
      CI roots used                              1     2     3     4
      weights                                0.250 0.250 0.250 0.250
      highest root included in the CI            4
      max. size of the explicit Hamiltonian     10
--
 
++    Optimization specifications:
      ----------------------------
 
      RASSCF algorithm: LK RI/DF
      Maximum number of macro iterations       200
      Maximum number of SX iterations          100
      Threshold for RASSCF energy            0.100E-07
      Threshold for max MO rotation          0.100E+00
      Threshold for max BLB element          0.100E-03
      Level shift parameter                  0.500E+00
      Make Quasi-Newton update
--
 
      The MO-coefficients are taken from the file:
      INPORB                                                                                                                          
      Title:Guess orbitals                                                                 
 
      Total molecular charge   -1.00
 
      ************************************************************************************************************************
      *                                                                                                                      *
      *                                            Wave function control section                                             *
      *                                                                                                                      *
      ************************************************************************************************************************
 
 
                                         RASSCF iterations: Energy and convergence statistics
                                         ----------------------------------------------------
 
      Iter CI   SX   CI       RASSCF       Energy    max ROT     max BLB   max BLB  Level Ln srch  Step   QN   Walltime
          iter iter root      energy       change     param      element    value   shift minimum  type update hh:mm:ss
 Nr of preliminary CI iterations:   1
      Total energies have been shifted. Add               -29000.00 au
        1   1  100    0  -424.40642789    0.00E+00   0.80E-01   81 113 1 -0.33E+00*  1.14   0.00    SX    NO    0:00:31
        2   1  100    0  -425.18386053   -0.78E+00*  0.56E-01   81 113 1 -0.21E+00*  1.09   0.00    SX    NO    0:00:14
        3   1   12    0  -425.49557520   -0.31E+00*  0.32E-01   81 113 1 -0.11E+00*  1.04   0.00    SX    NO    0:00:08
        4   1    9    0  -425.60971053   -0.11E+00* -0.58E-01   78 117 1  0.68E-01*  1.01   0.00    SX    NO    0:00:09
        5   1   22    0  -425.65372904   -0.44E-01* -0.65E-01   78 117 1  0.41E-01*  0.98   2.50    LS   YES    0:00:11
        6   1    8    0  -425.67916179   -0.25E-01* -0.53E-01   82 117 1  0.21E-01*  0.96   1.45    QN   YES    0:00:09
        7   1   16    0  -425.68754468   -0.84E-02*  0.57E-01  102 113 1  0.20E-01*  0.93   1.88    QN   YES    0:00:10
        8   1   13    0  -425.69369128   -0.61E-02*  0.83E-01  102 113 1  0.20E-01*  0.89   1.84    QN   YES    0:00:11
        9   1   16    0  -425.69871114   -0.50E-02* -0.17E+00* 102 113 1  0.18E-01*  0.85   2.20    QN   YES    0:00:11
       10   1   31    0  -425.70543902   -0.67E-02* -0.36E+00* 107 113 1  0.21E-01*  0.75   2.50    QN   YES    0:00:11
       11   1  100    0  -425.72263246   -0.17E-01* -0.23E+00*  90 111 1 -0.49E-01*  0.49   2.50    LS   YES    0:00:15
       12   1  100    0  -425.73504004   -0.12E-01*  0.32E+00* 102 114 1  0.10E+00*  0.43   1.35    QN   YES    0:00:15
       13   1  100    0  -425.73897284   -0.39E-02*  0.22E+00* 102 114 1  0.98E-01*  0.43   0.63    QN   YES    0:00:15
       14   1  100    0  -425.74431526   -0.53E-02* -0.85E-01  102 114 1  0.99E-01*  0.45   1.03    QN   YES    0:00:15
       15   1  100    0  -425.72945403    0.15E-01* -0.15E+00*  98 139 1 -0.87E-01*  0.46  -0.50    QN   YES    0:00:14
       16   1  100    0  -425.76147682   -0.32E-01* -0.19E+00* 102 114 1  0.11E+00*  0.43   2.50    QN   YES    0:00:20
       17   1  100    0  -425.79400126   -0.33E-01* -0.13E+00* 102 114 1  0.12E+00*  0.41   2.13    QN   YES    0:00:04
       18   1  100    0  -425.82257372   -0.29E-01*  0.86E-01  102 114 1  0.12E+00*  0.41   2.15    QN   YES    0:00:04
       19   1  100    0  -425.84954056   -0.27E-01*  0.35E-01  102 114 1  0.11E+00*  0.43   2.22    SX   YES    0:00:05
       20   1   29    0  -425.89962978   -0.50E-01* -0.11E+00*  71 139 1 -0.25E-01*  0.54   1.23    QN   YES    0:00:03
       21   1   14    0  -425.91115079   -0.12E-01* -0.79E-01  102 113 1 -0.15E-01*  0.56   1.35    QN   YES    0:00:03
       22   1   12    0  -425.91540728   -0.43E-02* -0.47E-01   90 113 1 -0.14E-01*  0.58   0.88    QN   YES    0:00:03
       23   1   10    0  -425.91714145   -0.17E-02* -0.80E-02   90 113 1 -0.10E-01*  0.57   1.43    QN   YES    0:00:03
       24   1   10    0  -425.91776515   -0.62E-03*  0.58E-02   90 113 1 -0.40E-02*  0.57   1.48    QN   YES    0:00:03
       25   1    9    0  -425.91795412   -0.19E-03*  0.40E-02  102 114 1  0.23E-02*  0.56   1.48    QN   YES    0:00:03
       26   1    9    0  -425.91802397   -0.70E-04*  0.35E-02   97 110 1  0.15E-02*  0.56   1.59    QN   YES    0:00:03
       27   1    9    0  -425.91805328   -0.29E-04*  0.22E-02   90 114 1 -0.91E-03*  0.57   1.43    QN   YES    0:00:03
       28   1    8    0  -425.91806188   -0.86E-05*  0.16E-02   90 114 1 -0.46E-03*  0.57   1.55    QN   YES    0:00:03
       29   1    8    0  -425.91806481   -0.29E-05*  0.12E-02   97 110 1 -0.21E-03*  0.57   1.51    QN   YES    0:00:03
       30   1    7    0  -425.91806581   -0.10E-05*  0.11E-02   97 110 1 -0.14E-03*  0.57   1.44    QN   YES    0:00:03
       31   1    7    0  -425.91806622   -0.40E-06*  0.98E-03   81 113 1  0.59E-04   0.57   1.59    QN   YES    0:00:03
       32   1    7    0  -425.91806642   -0.20E-06*  0.11E-02   90 114 1  0.59E-04   0.57   2.08    LS   YES    0:00:03
       33   1    7    0  -425.91806644   -0.20E-07*  0.16E-03   97 110 1  0.11E-03*  0.57   0.59    QN   YES    0:00:03
       34   1    7    0  -425.91806655   -0.11E-06*  0.39E-03   90 114 1  0.55E-04   0.57   1.52    QN   YES    0:00:03
       35   1    6    0  -425.91806662   -0.71E-07*  0.58E-03   90 114 1  0.26E-04   0.57   2.50    LS   YES    0:00:03
       36   1    7    0  -425.91806658    0.44E-07*  0.29E-03   77 114 1  0.83E-04   0.57   0.28    LS   YES    0:00:03
       37   1    6    0  -425.91806663   -0.56E-07*  0.15E-03   77 114 1  0.46E-04   0.57   1.26    QN   YES    0:00:03
       38   1    6    0  -425.91806666   -0.22E-07*  0.23E-03   77 140 1  0.19E-04   0.57   2.50    LS   YES    0:00:04
       39   1    6    0  -425.91806666   -0.29E-08   0.70E-04   97 110 1  0.30E-04   0.57   0.60    QN   YES    0:00:04
      Convergence after 39 iterations
       40   1    6    0  -425.91806667   -0.78E-08   0.70E-04   98 112 1  0.13E-04   0.57   0.60    QN   YES    0:00:03
 
      ************************************************************************************************************************
                                                      Wave function printout:
                       occupation of active orbitals, and spin coupling of open shells (u,d: Spin up or down)
      ************************************************************************************************************************
 
      Note: transformation to natural orbitals
      has been made, which may change the order of the CSFs.
 
      printout of CI-coefficients larger than  0.05 for root  1
      energy=  -29425.926130
      conf/sym  11111     Coeff  Weight
             4  u000u   0.99951 0.99903
 
      printout of CI-coefficients larger than  0.05 for root  2
      energy=  -29425.921906
      conf/sym  11111     Coeff  Weight
             7  0u00u   0.99563 0.99128
            10  000uu   0.09170 0.00841
 
      printout of CI-coefficients larger than  0.05 for root  3
      energy=  -29425.917053
      conf/sym  11111     Coeff  Weight
             9  00u0u   0.99971 0.99942
 
      printout of CI-coefficients larger than  0.05 for root  4
      energy=  -29425.907177
      conf/sym  11111     Coeff  Weight
             7  0u00u  -0.09188 0.00844
            10  000uu   0.99572 0.99145
 
      Natural orbitals and occupation numbers for root  1
      sym 1:   1.000000   0.000000   0.000000   0.000000   1.000000
 
      Natural orbitals and occupation numbers for root  2
      sym 1:  -0.000000   1.000000   0.000000   0.000000   1.000000
 
      Natural orbitals and occupation numbers for root  3
      sym 1:  -0.000000   0.000000   1.000000   0.000000   1.000000
 
      Natural orbitals and occupation numbers for root  4
      sym 1:  -0.000000   0.000001   0.000001   0.999999   0.999999
 
      ************************************************************************************************************************
      *                                                                                                                      *
      *                                                    Final results                                                     *
      *                                                                                                                      *
      ************************************************************************************************************************
 
 
++    Wave function specifications:
      -----------------------------
 
      Number of closed shell electrons         212
      Number of electrons in active shells       2
      Max number of holes in RAS1 space          0
      Max nr of electrons in RAS3 space          0
      Number of inactive orbitals              106
      Number of active orbitals                  5
      Number of secondary orbitals              31
      Spin quantum number                      1.0
      State symmetry                             1
--
 
++    Orbital specifications:
      -----------------------
 
      Symmetry species                           1
                                                 a
      Frozen orbitals                            0
      Inactive orbitals                        106
      Active orbitals                            5
      RAS1 orbitals                              0
      RAS2 orbitals                              5
      RAS3 orbitals                              0
      Secondary orbitals                        31
      Deleted orbitals                           0
      Number of basis functions                142
--
 
++    CI expansion specifications:
      ----------------------------
 
      Number of CSFs                            10
      Number of determinants                    10
      Number of root(s) required                 4
      CI roots used                              1     2     3     4
      weights                                0.250 0.250 0.250 0.250
      highest root included in the CI            4
      Root passed to geometry opt.               4
--
 
++    Final optimization conditions:
      ------------------------------
 
      Average CI energy                          -29425.91806667
      RASSCF energy for state  4                 -29425.90717723
      Super-CI energy                                -0.00000001
      RASSCF energy change                           -0.00000001
      Max change in MO coefficients              -0.609E-04
      Max non-diagonal density matrix element     0.697E-04
      Maximum BLB matrix element                  0.135E-04
      (orbital pair  98, 112 in symmetry   1)
      Norm of electronic gradient            0.457E-01
--
 
 
      Final state energy(ies):
      ------------------------
 
::    RASSCF root number  1 Total energy: -29425.92613040
::    RASSCF root number  2 Total energy: -29425.92190635
::    RASSCF root number  3 Total energy: -29425.91705271
::    RASSCF root number  4 Total energy: -29425.90717723
 
++    Molecular orbitals:
      -------------------
 
      Pseudonatural active orbitals and approximate occupation numbers
 
 
 
 
      Molecular orbitals for symmetry species 1: a  
 
 
      Orbital                1         2         3         4         5         6         7         8         9        10
      Energy        -4260.2945 -804.2526 -674.9245 -674.9243 -674.9237 -206.2906 -169.6911 -169.6911 -169.6822 -135.1162
      Occ. No.          2.0000    2.0000    2.0000    2.0000    2.0000    2.0000    2.0000    2.0000    2.0000    2.0000
 
    1 C1     1s        -0.0000   -0.0000   -0.0000   -0.0000   -0.0000   -0.0000   -0.0000   -0.0000   -0.0000    0.0000
    2 C1     2s        -0.0000   -0.0000   -0.0000   -0.0000   -0.0000   -0.0000   -0.0000   -0.0000   -0.0000    0.0000
    3 C1     2px        0.0000    0.0000   -0.0000   -0.0000   -0.0000    0.0000   -0.0000   -0.0000   -0.0000    0.0000
    4 C1     2py        0.0000    0.0000   -0.0000    0.0000   -0.0000    0.0000    0.0000   -0.0000   -0.0000    0.0000
    5 C1     2pz        0.0000    0.0000   -0.0000   -0.0000   -0.0000    0.0000   -0.0000    0.0000   -0.0000    0.0000
    6 S2     1s        -0.0000   -0.0000    0.0000   -0.0000   -0.0000   -0.0000    0.0000    0.0000   -0.0000   -0.0000
    7 S2     2s        -0.0000   -0.0000    0.0000   -0.0000   -0.0000   -0.0000    0.0000    0.0000   -0.0000   -0.0000
    8 S2     3s        -0.0000   -0.0000    0.0000   -0.0000    0.0000   -0.0000    0.0000    0.0000   -0.0000   -0.0000
    9 S2     2px       -0.0000   -0.0000   -0.0000    0.0000    0.0000   -0.0000    0.0000   -0.0000    0.0000    0.0000
   10 S2     3px       -0.0000   -0.0000   -0.0000   -0.0000    0.0000   -0.0000   -0.0000   -0.0000    0.0000    0.0000
   11 S2     2py       -0.0000   -0.0000   -0.0000   -0.0000    0.0000   -0.0000   -0.0000   -0.0000    0.0000    0.0000
   12 S2     3py       -0.0000   -0.0000   -0.0000    0.0000    0.0000   -0.0000    0.0000   -0.0000    0.0000    0.0000
   13 S2     2pz        0.0000    0.0000    0.0000    0.0000    0.0000    0.0000    0.0000    0.0000    0.0000   -0.0000
   14 S2     3pz        0.0000    0.0000    0.0000    0.0000    0.0000    0.0000    0.0000    0.0000    0.0000   -0.0000
   15 O3     1s         0.0000    0.0000    0.0000    0.0000    0.0000    0.0000    0.0000    0.0000   -0.0000   -0.0000
   16 O3     2s         0.0000    0.0000    0.0000    0.0000    0.0000    0.0000    0.0000    0.0000   -0.0000   -0.0000
   17 O3     2px       -0.0000   -0.0000    0.0000    0.0000   -0.0000   -0.0000    0.0000    0.0000   -0.0000   -0.0000
   18 O3     2py       -0.0000   -0.0000    0.0000    0.0000    0.0000   -0.0000    0.0000    0.0000    0.0000   -0.0000
   19 O3     2pz       -0.0000   -0.0000    0.0000    0.0000    0.0000   -0.0000    0.0000    0.0000    0.0000   -0.0000
   20 U4     1s         1.0000   -0.0000   -0.0000   -0.0000    0.0000    0.0000    0.0000   -0.0000   -0.0000    0.0000
   21 U4     2s         0.0000    1.0000   -0.0000   -0.0000    0.0000   -0.0000   -0.0000   -0.0000    0.0000   -0.0000
   22 U4     3s        -0.0000    0.0000    0.0000    0.0000   -0.0000    1.0000   -0.0000   -0.0000    0.0000   -0.0000
   23 U4     4s         0.0000   -0.0000    0.0000   -0.0000    0.0000   -0.0000    0.0000    0.0000   -0.0000   -0.0000
   24 U4     5s        -0.0000    0.0000   -0.0000    0.0000   -0.0000    0.0000   -0.0000    0.0000    0.0000    0.0000
   25 U4     6s         0.0000   -0.0000    0.0000   -0.0000    0.0000    0.0000    0.0000   -0.0000   -0.0000   -0.0000
   26 U4     7s        -0.0000   -0.0000   -0.0000   -0.0000   -0.0000   -0.0000    0.0000   -0.0000    0.0000    0.0000
   27 U4     2px        0.0000    0.0000    0.3358    0.9419    0.0013   -0.0000   -0.0000   -0.0000    0.0000    0.0000
   28 U4     3px        0.0000    0.0000    0.0000    0.0000   -0.0000    0.0000    0.9480    0.3183    0.0010    0.0000
   29 U4     4px       -0.0000   -0.0000   -0.0000   -0.0000   -0.0000    0.0000   -0.0000   -0.0000   -0.0000   -0.0000
   30 U4     5px        0.0000    0.0000    0.0000    0.0000    0.0000    0.0000    0.0000    0.0000    0.0000    0.0000
   31 U4     6px       -0.0000    0.0000   -0.0000   -0.0000    0.0000   -0.0000   -0.0000   -0.0000    0.0000   -0.0000
   32 U4     7px        0.0000    0.0000   -0.0000    0.0000   -0.0000    0.0000    0.0000    0.0000    0.0000    0.0000
   33 U4     2py        0.0000    0.0000    0.9419   -0.3358    0.0044   -0.0000    0.0000   -0.0000    0.0000    0.0000
   34 U4     3py        0.0000    0.0000    0.0000   -0.0000   -0.0000    0.0000   -0.3183    0.9480    0.0044    0.0000
   35 U4     4py       -0.0000   -0.0000   -0.0000    0.0000   -0.0000   -0.0000    0.0000   -0.0000   -0.0000   -0.0000
   36 U4     5py        0.0000    0.0000    0.0000   -0.0000    0.0000    0.0000   -0.0000    0.0000    0.0000    0.0000
   37 U4     6py       -0.0000    0.0000   -0.0000    0.0000    0.0000   -0.0000    0.0000   -0.0000    0.0000   -0.0000
   38 U4     7py        0.0000    0.0000   -0.0000   -0.0000    0.0000    0.0000   -0.0000    0.0000    0.0000    0.0000
   39 U4     2pz       -0.0000   -0.0000   -0.0046    0.0002    1.0000    0.0000   -0.0000    0.0000   -0.0000    0.0000
   40 U4     3pz        0.0000   -0.0000   -0.0000    0.0000    0.0000   -0.0000    0.0005   -0.0045    1.0000   -0.0000
   41 U4     4pz       -0.0000    0.0000    0.0000   -0.0000   -0.0000   -0.0000   -0.0000    0.0000   -0.0000   -0.0000
   42 U4     5pz        0.0000   -0.0000   -0.0000    0.0000    0.0000    0.0000    0.0000    0.0000    0.0000    0.0000
   43 U4     6pz       -0.0000    0.0000   -0.0000   -0.0000    0.0000   -0.0000   -0.0000   -0.0000    0.0000   -0.0000
   44 U4     7pz        0.0000    0.0000   -0.0000   -0.0000    0.0000    0.0000   -0.0000   -0.0000    0.0000    0.0000
   45 U4     3d2-      -0.0000    0.0000    0.0000    0.0000    0.0000   -0.0000    0.0000    0.0000   -0.0000   -0.6311
   46 U4     4d2-       0.0000   -0.0000   -0.0000   -0.0000   -0.0000   -0.0000    0.0000    0.0000    0.0000    0.0000
   47 U4     5d2-      -0.0000    0.0000    0.0000    0.0000    0.0000   -0.0000   -0.0000   -0.0000   -0.0000   -0.0000
   48 U4     6d2-      -0.0000   -0.0000    0.0000    0.0000   -0.0000   -0.0000    0.0000    0.0000    0.0000    0.0000
   49 U4     3d1-       0.0000   -0.0000   -0.0000    0.0000    0.0000   -0.0000    0.0000   -0.0000    0.0000    0.0049
   50 U4     4d1-      -0.0000    0.0000    0.0000   -0.0000   -0.0000   -0.0000    0.0000   -0.0000    0.0000   -0.0000
   51 U4     5d1-      -0.0000    0.0000   -0.0000    0.0000    0.0000    0.0000   -0.0000    0.0000   -0.0000    0.0000
   52 U4     6d1-       0.0000    0.0000   -0.0000   -0.0000   -0.0000    0.0000    0.0000   -0.0000    0.0000   -0.0000
   53 U4     3d0        0.0000   -0.0000   -0.0000   -0.0000   -0.0000   -0.0001   -0.0000   -0.0000   -0.0000   -0.0220
   54 U4     4d0       -0.0000    0.0000    0.0000    0.0000    0.0000   -0.0000   -0.0000   -0.0000   -0.0000   -0.0000
   55 U4     5d0       -0.0000    0.0000   -0.0000   -0.0000   -0.0000    0.0000    0.0000    0.0000    0.0000    0.0000
   56 U4     6d0        0.0000    0.0000   -0.0000    0.0000    0.0000    0.0000   -0.0000   -0.0000   -0.0000   -0.0000
   57 U4     3d1+       0.0000   -0.0000   -0.0000   -0.0000    0.0000   -0.0000   -0.0000   -0.0000    0.0000    0.0024
   58 U4     4d1+      -0.0000    0.0000    0.0000    0.0000   -0.0000   -0.0000   -0.0000   -0.0000    0.0000   -0.0000
   59 U4     5d1+      -0.0000   -0.0000   -0.0000   -0.0000    0.0000    0.0000    0.0000    0.0000   -0.0000    0.0000
   60 U4     6d1+       0.0000    0.0000   -0.0000    0.0000   -0.0000    0.0000   -0.0000   -0.0000    0.0000   -0.0000
   61 U4     3d2+       0.0000   -0.0000   -0.0000    0.0000   -0.0000    0.0000    0.0000   -0.0000    0.0000    0.7754
   62 U4     4d2+      -0.0000    0.0000    0.0000   -0.0000    0.0000    0.0000    0.0000   -0.0000   -0.0000   -0.0000
   63 U4     5d2+       0.0000   -0.0000   -0.0000    0.0000   -0.0000    0.0000   -0.0000    0.0000    0.0000    0.0000
   64 U4     6d2+       0.0000    0.0000   -0.0000    0.0000    0.0000    0.0000    0.0000   -0.0000   -0.0000   -0.0000
   65 U4     4f3-      -0.0000   -0.0000    0.0000   -0.0000    0.0000   -0.0000   -0.0000    0.0000    0.0000    0.0000
   66 U4     5f3-       0.0000    0.0000    0.0000    0.0000   -0.0000    0.0000    0.0000    0.0000   -0.0000   -0.0000
   67 U4     4f2-      -0.0000    0.0000   -0.0000   -0.0000    0.0000    0.0000   -0.0000   -0.0000   -0.0000    0.0000
   68 U4     5f2-       0.0000    0.0000   -0.0000    0.0000   -0.0000    0.0000    0.0000    0.0000    0.0000   -0.0000
   69 U4     4f1-      -0.0000   -0.0000   -0.0000    0.0000   -0.0000   -0.0000    0.0000   -0.0000   -0.0000    0.0000
   70 U4     5f1-       0.0000    0.0000    0.0000   -0.0000    0.0000    0.0000   -0.0000    0.0000    0.0000   -0.0000
   71 U4     4f0       -0.0000   -0.0000    0.0000   -0.0000   -0.0000   -0.0000   -0.0000    0.0000   -0.0000    0.0000
   72 U4     5f0        0.0000    0.0000   -0.0000    0.0000    0.0000    0.0000    0.0000   -0.0000    0.0000   -0.0000
   73 U4     4f1+      -0.0000   -0.0000   -0.0000   -0.0000   -0.0000    0.0000   -0.0000   -0.0000   -0.0000    0.0000
   74 U4     5f1+       0.0000    0.0000    0.0000    0.0000    0.0000    0.0000    0.0000    0.0000    0.0000   -0.0000
   75 U4     4f2+       0.0000   -0.0000    0.0000   -0.0000   -0.0000   -0.0000   -0.0000    0.0000    0.0000   -0.0000
   76 U4     5f2+      -0.0000   -0.0000   -0.0000    0.0000    0.0000   -0.0000    0.0000   -0.0000   -0.0000    0.0000
   77 U4     4f3+      -0.0000   -0.0000    0.0000    0.0000    0.0000   -0.0000    0.0000    0.0000    0.0000    0.0000
   78 U4     5f3+       0.0000    0.0000    0.0000   -0.0000   -0.0000    0.0000   -0.0000    0.0000   -0.0000   -0.0000
   79 O5     1s         0.0000    0.0000   -0.0000   -0.0000    0.0000    0.0000   -0.0000   -0.0000    0.0000   -0.0000
   80 O5     2s         0.0000    0.0000   -0.0000   -0.0000    0.0000    0.0000   -0.0000   -0.0000   -0.0000   -0.0000
   81 O5     2px        0.0000    0.0000    0.0000    0.0000   -0.0000    0.0000    0.0000    0.0000   -0.0000    0.0000
   82 O5     2py        0.0000    0.0000    0.0000    0.0000    0.0000    0.0000    0.0000    0.0000   -0.0000    0.0000
   83 O5     2pz       -0.0000   -0.0000    0.0000   -0.0000    0.0000   -0.0000   -0.0000   -0.0000    0.0000    0.0000
   84 S6     1s        -0.0000   -0.0000   -0.0000    0.0000    0.0000   -0.0000   -0.0000   -0.0000    0.0000   -0.0000
   85 S6     2s        -0.0000   -0.0000   -0.0000    0.0000    0.0000   -0.0000   -0.0000   -0.0000    0.0000   -0.0000
   86 S6     3s        -0.0000   -0.0000   -0.0000    0.0000    0.0000   -0.0000   -0.0000   -0.0000    0.0000   -0.0000
   87 S6     2px        0.0000    0.0000   -0.0000    0.0000    0.0000    0.0000    0.0000   -0.0000    0.0000   -0.0000
   88 S6     3px        0.0000    0.0000   -0.0000   -0.0000    0.0000    0.0000   -0.0000   -0.0000    0.0000   -0.0000
   89 S6     2py        0.0000    0.0000   -0.0000   -0.0000    0.0000    0.0000   -0.0000   -0.0000    0.0000   -0.0000
   90 S6     3py        0.0000    0.0000   -0.0000    0.0000    0.0000    0.0000    0.0000   -0.0000    0.0000   -0.0000
   91 S6     2pz       -0.0000   -0.0000    0.0000    0.0000    0.0000   -0.0000    0.0000    0.0000    0.0000    0.0000
   92 S6     3pz       -0.0000   -0.0000    0.0000    0.0000    0.0000   -0.0000    0.0000    0.0000   -0.0000    0.0000
   93 O7     1s         0.0000    0.0000   -0.0000    0.0000    0.0000    0.0000    0.0000   -0.0000    0.0000   -0.0000
   94 O7     2s         0.0000    0.0000   -0.0000    0.0000    0.0000    0.0000    0.0000   -0.0000   -0.0000   -0.0000
   95 O7     2px       -0.0000   -0.0000   -0.0000    0.0000    0.0000   -0.0000    0.0000   -0.0000    0.0000    0.0000
   96 O7     2py        0.0000    0.0000    0.0000   -0.0000    0.0000    0.0000   -0.0000    0.0000   -0.0000    0.0000
   97 O7     2pz       -0.0000   -0.0000    0.0000    0.0000    0.0000   -0.0000    0.0000   -0.0000    0.0000    0.0000
   98 O8     1s         0.0000    0.0000    0.0000   -0.0000    0.0000    0.0000   -0.0000    0.0000   -0.0000   -0.0000
   99 O8     2s         0.0000    0.0000    0.0000   -0.0000    0.0000    0.0000   -0.0000    0.0000   -0.0000   -0.0000
  100 O8     2px        0.0000    0.0000   -0.0000    0.0000    0.0000    0.0000    0.0000   -0.0000    0.0000   -0.0000
  101 O8     2py       -0.0000   -0.0000    0.0000   -0.0000    0.0000   -0.0000   -0.0000    0.0000    0.0000   -0.0000
  102 O8     2pz       -0.0000   -0.0000    0.0000   -0.0000    0.0000   -0.0000   -0.0000    0.0000    0.0000   -0.0000
  103 O9     1s         0.0000    0.0000    0.0000   -0.0000    0.0000    0.0000   -0.0000    0.0000    0.0000    0.0000
  104 O9     2s        -0.0000    0.0000    0.0000   -0.0000    0.0000   -0.0000   -0.0000    0.0000    0.0000    0.0000
  105 O9     2px       -0.0000   -0.0000   -0.0000   -0.0000   -0.0000   -0.0000   -0.0000   -0.0000    0.0000   -0.0000
  106 O9     2py       -0.0000   -0.0000   -0.0000    0.0000   -0.0000   -0.0000    0.0000   -0.0000    0.0000   -0.0000
  107 O9     2pz       -0.0000   -0.0000    0.0000   -0.0000    0.0000   -0.0000   -0.0000    0.0000    0.0000    0.0000
  108 O10    1s         0.0000    0.0000    0.0000   -0.0000   -0.0000    0.0000   -0.0000    0.0000   -0.0000    0.0000
  109 O10    2s        -0.0000   -0.0000    0.0000   -0.0000   -0.0000   -0.0000   -0.0000    0.0000   -0.0000    0.0000
  110 O10    2px        0.0000    0.0000   -0.0000   -0.0000   -0.0000    0.0000   -0.0000   -0.0000   -0.0000    0.0000
  111 O10    2py        0.0000    0.0000   -0.0000    0.0000   -0.0000    0.0000    0.0000   -0.0000   -0.0000    0.0000
  112 O10    2pz        0.0000    0.0000   -0.0000   -0.0000    0.0000    0.0000   -0.0000   -0.0000    0.0000   -0.0000
  113 C11    1s        -0.0000   -0.0000    0.0000   -0.0000    0.0000   -0.0000    0.0000    0.0000    0.0000   -0.0000
  114 C11    2s         0.0000   -0.0000    0.0000   -0.0000   -0.0000    0.0000    0.0000    0.0000   -0.0000   -0.0000
  115 C11    2px       -0.0000   -0.0000    0.0000   -0.0000   -0.0000   -0.0000   -0.0000    0.0000   -0.0000    0.0000
  116 C11    2py       -0.0000   -0.0000    0.0000    0.0000   -0.0000   -0.0000    0.0000    0.0000   -0.0000    0.0000
  117 C11    2pz       -0.0000   -0.0000    0.0000    0.0000    0.0000   -0.0000    0.0000    0.0000    0.0000    0.0000
  118 C12    1s         0.0000    0.0000   -0.0000    0.0000   -0.0000    0.0000   -0.0000   -0.0000   -0.0000   -0.0000
  119 C12    2s         0.0000    0.0000   -0.0000    0.0000   -0.0000    0.0000   -0.0000   -0.0000   -0.0000   -0.0000
  120 C12    2px       -0.0000   -0.0000    0.0000   -0.0000    0.0000   -0.0000   -0.0000    0.0000    0.0000   -0.0000
  121 C12    2py       -0.0000   -0.0000    0.0000    0.0000    0.0000   -0.0000    0.0000    0.0000    0.0000   -0.0000
  122 C12    2pz       -0.0000   -0.0000    0.0000   -0.0000   -0.0000   -0.0000    0.0000    0.0000    0.0000    0.0000
  123 C13    1s         0.0000    0.0000   -0.0000   -0.0000   -0.0000    0.0000   -0.0000   -0.0000   -0.0000    0.0000
  124 C13    2s         0.0000    0.0000   -0.0000   -0.0000   -0.0000    0.0000   -0.0000   -0.0000   -0.0000    0.0000
  125 C13    2px       -0.0000   -0.0000    0.0000   -0.0000    0.0000   -0.0000   -0.0000    0.0000    0.0000   -0.0000
  126 C13    2py       -0.0000   -0.0000    0.0000    0.0000    0.0000   -0.0000    0.0000    0.0000    0.0000   -0.0000
  127 C13    2pz       -0.0000   -0.0000    0.0000    0.0000    0.0000   -0.0000    0.0000    0.0000    0.0000   -0.0000
  128 C14    1s         0.0000   -0.0000    0.0000    0.0000    0.0000    0.0000    0.0000    0.0000    0.0000   -0.0000
  129 C14    2s         0.0000    0.0000    0.0000    0.0000    0.0000    0.0000    0.0000    0.0000    0.0000   -0.0000
  130 C14    2px       -0.0000   -0.0000    0.0000   -0.0000    0.0000   -0.0000   -0.0000    0.0000    0.0000    0.0000
  131 C14    2py       -0.0000    0.0000    0.0000    0.0000    0.0000   -0.0000    0.0000    0.0000    0.0000    0.0000
  132 C14    2pz       -0.0000   -0.0000   -0.0000    0.0000    0.0000   -0.0000    0.0000   -0.0000    0.0000    0.0000
  133 C15    1s         0.0000    0.0000   -0.0000   -0.0000   -0.0000    0.0000   -0.0000   -0.0000   -0.0000    0.0000
  134 C15    2s         0.0000    0.0000   -0.0000   -0.0000   -0.0000    0.0000   -0.0000   -0.0000   -0.0000    0.0000
  135 C15    2px        0.0000    0.0000    0.0000   -0.0000    0.0000    0.0000   -0.0000    0.0000    0.0000   -0.0000
  136 C15    2py        0.0000    0.0000    0.0000    0.0000    0.0000    0.0000    0.0000    0.0000    0.0000   -0.0000
  137 C15    2pz        0.0000    0.0000   -0.0000   -0.0000   -0.0000    0.0000   -0.0000   -0.0000   -0.0000    0.0000
  138 H16    1s         0.0000    0.0000   -0.0000    0.0000   -0.0000    0.0000   -0.0000   -0.0000   -0.0000   -0.0000
  139 H17    1s         0.0000    0.0000   -0.0000    0.0000   -0.0000    0.0000   -0.0000   -0.0000   -0.0000    0.0000
  140 H18    1s         0.0000    0.0000   -0.0000    0.0000   -0.0000    0.0000   -0.0000   -0.0000   -0.0000    0.0000
  141 H19    1s         0.0000    0.0000   -0.0000   -0.0000   -0.0000    0.0000   -0.0000   -0.0000   -0.0000    0.0000
  142 H20    1s        -0.0000   -0.0000    0.0000    0.0000    0.0000   -0.0000    0.0000    0.0000    0.0000   -0.0000
 
 
      Orbital               11        12        13        14        15        16        17        18        19        20
      Energy         -135.1161 -135.1126 -135.1125 -135.1113  -92.4231  -92.3470  -54.2743  -42.0574  -42.0572  -42.0416
      Occ. No.          2.0000    2.0000    2.0000    2.0000    2.0000    2.0000    2.0000    2.0000    2.0000    2.0000
 
    1 C1     1s        -0.0000   -0.0000   -0.0000    0.0000   -0.0000   -0.0000   -0.0000   -0.0000   -0.0000   -0.0000
    2 C1     2s        -0.0000   -0.0000   -0.0000    0.0000   -0.0000   -0.0000   -0.0000   -0.0000   -0.0000   -0.0000
    3 C1     2px       -0.0000   -0.0000   -0.0000   -0.0000   -0.0000    0.0000    0.0000   -0.0000   -0.0000   -0.0000
    4 C1     2py        0.0000    0.0000   -0.0000   -0.0000   -0.0000    0.0000    0.0000    0.0000   -0.0000   -0.0000
    5 C1     2pz        0.0000   -0.0000    0.0000   -0.0000   -0.0000    0.0000    0.0000   -0.0000   -0.0000   -0.0000
    6 S2     1s        -0.0000   -0.0000    0.0000    0.0000    1.0000    0.0000   -0.0000    0.0000    0.0000   -0.0000
    7 S2     2s        -0.0000   -0.0000    0.0000    0.0000   -0.0000   -0.0000   -0.0000    0.0000    0.0000   -0.0000
    8 S2     3s        -0.0000   -0.0000    0.0000    0.0000   -0.0004   -0.0000   -0.0000    0.0000    0.0000    0.0000
    9 S2     2px        0.0000    0.0000    0.0000    0.0000   -0.0000    0.0000   -0.0000    0.0000   -0.0000    0.0000
   10 S2     3px        0.0000    0.0000    0.0000    0.0000    0.0000    0.0000   -0.0000    0.0000   -0.0000    0.0000
   11 S2     2py       -0.0000   -0.0000    0.0000    0.0000   -0.0001    0.0000   -0.0000   -0.0000   -0.0000    0.0000
   12 S2     3py        0.0000   -0.0000    0.0000    0.0000    0.0000    0.0000   -0.0000   -0.0000   -0.0000    0.0000
   13 S2     2pz        0.0000   -0.0000    0.0000   -0.0000    0.0001    0.0000    0.0000    0.0000    0.0000    0.0000
   14 S2     3pz        0.0000   -0.0000    0.0000   -0.0000   -0.0000    0.0000    0.0000    0.0000   -0.0000    0.0000
   15 O3     1s         0.0000    0.0000    0.0000    0.0000    0.0000   -0.0000    0.0000    0.0000    0.0000    0.0000
   16 O3     2s         0.0000    0.0000    0.0000    0.0000    0.0000   -0.0000    0.0000    0.0000    0.0000    0.0000
   17 O3     2px        0.0000   -0.0000   -0.0000   -0.0000   -0.0000    0.0000   -0.0000    0.0000    0.0000   -0.0000
   18 O3     2py        0.0000   -0.0000   -0.0000   -0.0000    0.0000    0.0000   -0.0000    0.0000    0.0000   -0.0000
   19 O3     2pz       -0.0000    0.0000    0.0000    0.0000    0.0000   -0.0000    0.0000    0.0000    0.0000    0.0000
   20 U4     1s        -0.0000   -0.0000   -0.0000   -0.0000   -0.0000   -0.0000   -0.0000   -0.0000   -0.0000    0.0000
   21 U4     2s        -0.0000    0.0000    0.0000    0.0000   -0.0000   -0.0000    0.0000    0.0000    0.0000   -0.0000
   22 U4     3s         0.0000    0.0000    0.0000    0.0001   -0.0000   -0.0000    0.0000   -0.0000    0.0000    0.0000
   23 U4     4s         0.0000   -0.0000   -0.0000    0.0000   -0.0000   -0.0000    1.0000   -0.0000   -0.0000    0.0000
   24 U4     5s        -0.0000    0.0000   -0.0000   -0.0000   -0.0000   -0.0000   -0.0001    0.0000   -0.0000   -0.0000
   25 U4     6s         0.0000   -0.0000   -0.0000    0.0000   -0.0000   -0.0000    0.0000   -0.0000   -0.0000    0.0000
   26 U4     7s        -0.0000   -0.0000   -0.0000   -0.0000   -0.0000   -0.0000   -0.0000   -0.0000   -0.0000   -0.0000
   27 U4     2px       -0.0000    0.0000    0.0000    0.0000   -0.0000    0.0000   -0.0000    0.0000    0.0000   -0.0000
   28 U4     3px       -0.0000    0.0000    0.0000    0.0000   -0.0000    0.0000   -0.0000    0.0000    0.0000    0.0000
   29 U4     4px        0.0000   -0.0000   -0.0000   -0.0000   -0.0000    0.0000    0.0000    0.9424    0.3345    0.0012
   30 U4     5px       -0.0000    0.0000    0.0000    0.0000   -0.0000    0.0000   -0.0000   -0.0002   -0.0001   -0.0000
   31 U4     6px        0.0000    0.0000    0.0000   -0.0000   -0.0000    0.0000    0.0000    0.0000    0.0000    0.0000
   32 U4     7px       -0.0000    0.0000   -0.0000    0.0000   -0.0000    0.0000    0.0000   -0.0000   -0.0000   -0.0000
   33 U4     2py        0.0000   -0.0000    0.0000    0.0000   -0.0000    0.0000   -0.0000   -0.0000    0.0000    0.0000
   34 U4     3py        0.0000   -0.0000    0.0000    0.0000   -0.0000    0.0000   -0.0000   -0.0000    0.0000    0.0000
   35 U4     4py       -0.0000    0.0000   -0.0000   -0.0000   -0.0000    0.0000    0.0000   -0.3345    0.9424    0.0051
   36 U4     5py        0.0000   -0.0000    0.0000    0.0000   -0.0000    0.0000   -0.0000    0.0001   -0.0002   -0.0000
   37 U4     6py       -0.0000   -0.0000    0.0000   -0.0000   -0.0000    0.0000    0.0000   -0.0000    0.0000    0.0000
   38 U4     7py        0.0000   -0.0000   -0.0000    0.0000   -0.0000    0.0000    0.0000    0.0000   -0.0000   -0.0000
   39 U4     2pz        0.0000   -0.0000   -0.0000    0.0000    0.0000   -0.0000   -0.0000    0.0000   -0.0000    0.0000
   40 U4     3pz       -0.0000   -0.0000   -0.0000    0.0000    0.0000   -0.0000    0.0000    0.0000   -0.0000    0.0000
   41 U4     4pz       -0.0000    0.0000    0.0000   -0.0000    0.0000   -0.0000   -0.0000    0.0006   -0.0052    1.0000
   42 U4     5pz        0.0000   -0.0000   -0.0000    0.0000    0.0000   -0.0000   -0.0000   -0.0000    0.0000   -0.0001
   43 U4     6pz       -0.0000    0.0000   -0.0000    0.0000    0.0000   -0.0000    0.0000    0.0000   -0.0000    0.0001
   44 U4     7pz       -0.0000   -0.0000   -0.0000    0.0000    0.0000    0.0000    0.0000   -0.0000   -0.0000   -0.0000
   45 U4     3d2-       0.7756    0.0051    0.0030   -0.0139   -0.0000   -0.0000   -0.0000   -0.0000   -0.0000   -0.0000
   46 U4     4d2-      -0.0000   -0.0000   -0.0000    0.0000   -0.0000   -0.0000   -0.0000    0.0000    0.0000    0.0000
   47 U4     5d2-       0.0000    0.0000    0.0000   -0.0000   -0.0000   -0.0000    0.0000   -0.0000    0.0000    0.0000
   48 U4     6d2-      -0.0000   -0.0000   -0.0000   -0.0000   -0.0000   -0.0000   -0.0000    0.0000   -0.0000   -0.0000
   49 U4     3d1-       0.0026   -0.3342    0.9425    0.0057    0.0000    0.0000    0.0000   -0.0000    0.0000   -0.0000
   50 U4     4d1-      -0.0000    0.0000   -0.0000   -0.0000    0.0000    0.0000   -0.0000    0.0000   -0.0000    0.0000
   51 U4     5d1-       0.0000   -0.0000    0.0000   -0.0000    0.0000    0.0000    0.0000   -0.0000    0.0000   -0.0000
   52 U4     6d1-      -0.0000    0.0000   -0.0000    0.0000    0.0000    0.0000    0.0000    0.0000   -0.0000   -0.0000
   53 U4     3d0        0.0000    0.0012   -0.0055    0.9997    0.0000    0.0000   -0.0000    0.0000    0.0000    0.0000
   54 U4     4d0       -0.0000   -0.0000    0.0000   -0.0000    0.0000    0.0000   -0.0004   -0.0000   -0.0000   -0.0000
   55 U4     5d0       -0.0000    0.0000   -0.0000    0.0000    0.0000    0.0000    0.0001    0.0000   -0.0000   -0.0000
   56 U4     6d0       -0.0000   -0.0000   -0.0000    0.0000    0.0000    0.0000    0.0000   -0.0000   -0.0000   -0.0000
   57 U4     3d1+      -0.0056    0.9425    0.3342    0.0008    0.0000    0.0000    0.0000    0.0000    0.0000   -0.0000
   58 U4     4d1+       0.0000   -0.0000   -0.0000   -0.0000    0.0000    0.0000   -0.0000   -0.0000   -0.0000    0.0000
   59 U4     5d1+      -0.0000    0.0000    0.0000   -0.0000    0.0000    0.0000    0.0000    0.0000    0.0000   -0.0000
   60 U4     6d1+       0.0000   -0.0000   -0.0000    0.0000    0.0000    0.0000    0.0000   -0.0000   -0.0000   -0.0000
   61 U4     3d2+       0.6312    0.0035   -0.0047    0.0170    0.0000    0.0000    0.0000   -0.0000    0.0000    0.0000
   62 U4     4d2+      -0.0000   -0.0000    0.0000   -0.0000    0.0000    0.0000    0.0000    0.0000   -0.0000    0.0000
   63 U4     5d2+       0.0000    0.0000   -0.0000    0.0000    0.0000    0.0000   -0.0000   -0.0000   -0.0000   -0.0000
   64 U4     6d2+      -0.0000   -0.0000    0.0000    0.0000    0.0000    0.0000    0.0000    0.0000    0.0000    0.0000
   65 U4     4f3-       0.0000    0.0000   -0.0000    0.0000    0.0000   -0.0000   -0.0000   -0.0000    0.0000    0.0000
   66 U4     5f3-      -0.0000   -0.0000    0.0000   -0.0000    0.0000   -0.0000    0.0000   -0.0000   -0.0000    0.0000
   67 U4     4f2-      -0.0000    0.0000    0.0000    0.0000    0.0000   -0.0000    0.0000   -0.0000   -0.0000   -0.0000
   68 U4     5f2-       0.0000   -0.0000   -0.0000   -0.0000    0.0000   -0.0000    0.0000    0.0000   -0.0000   -0.0000
   69 U4     4f1-       0.0000    0.0000   -0.0000    0.0000    0.0000   -0.0000   -0.0000    0.0001   -0.0002   -0.0000
   70 U4     5f1-      -0.0000   -0.0000    0.0000   -0.0000    0.0000   -0.0000    0.0000   -0.0000    0.0000   -0.0000
   71 U4     4f0       -0.0000   -0.0000   -0.0000   -0.0000    0.0000    0.0000   -0.0000   -0.0000    0.0000   -0.0002
   72 U4     5f0        0.0000    0.0000    0.0000    0.0000    0.0000    0.0000    0.0000    0.0000   -0.0000    0.0000
   73 U4     4f1+      -0.0000   -0.0000   -0.0000    0.0000    0.0000   -0.0000   -0.0000   -0.0002   -0.0001   -0.0000
   74 U4     5f1+       0.0000    0.0000    0.0000   -0.0000    0.0000   -0.0000    0.0000    0.0000    0.0000   -0.0000
   75 U4     4f2+      -0.0000    0.0000   -0.0000   -0.0000   -0.0000    0.0000   -0.0000   -0.0000    0.0000    0.0000
   76 U4     5f2+       0.0000   -0.0000    0.0000    0.0000   -0.0000    0.0000   -0.0000   -0.0000    0.0000    0.0000
   77 U4     4f3+      -0.0000   -0.0000   -0.0000    0.0000    0.0000   -0.0000   -0.0000    0.0000    0.0000    0.0000
   78 U4     5f3+       0.0000    0.0000    0.0000   -0.0000    0.0000   -0.0000    0.0000    0.0000   -0.0000    0.0000
   79 O5     1s         0.0000   -0.0000   -0.0000    0.0000   -0.0000    0.0000    0.0000   -0.0000   -0.0000   -0.0000
   80 O5     2s         0.0000   -0.0000   -0.0000    0.0000   -0.0000    0.0000    0.0000   -0.0000   -0.0000   -0.0000
   81 O5     2px       -0.0000   -0.0000   -0.0000    0.0000   -0.0000    0.0000    0.0000    0.0000    0.0000   -0.0000
   82 O5     2py       -0.0000   -0.0000   -0.0000    0.0000   -0.0000   -0.0000    0.0000    0.0000    0.0000    0.0000
   83 O5     2pz       -0.0000   -0.0000   -0.0000   -0.0000   -0.0000   -0.0000   -0.0000   -0.0000    0.0000    0.0000
   84 S6     1s         0.0000   -0.0000   -0.0000    0.0000   -0.0000    1.0000   -0.0000   -0.0000   -0.0000   -0.0000
   85 S6     2s         0.0000   -0.0000   -0.0000    0.0000   -0.0000   -0.0000   -0.0000   -0.0000   -0.0000   -0.0000
   86 S6     3s         0.0000   -0.0000   -0.0000    0.0000   -0.0000   -0.0004   -0.0000   -0.0000   -0.0000   -0.0000
   87 S6     2px       -0.0000    0.0000   -0.0000   -0.0000   -0.0000    0.0000    0.0000    0.0000   -0.0000    0.0000
   88 S6     3px        0.0000    0.0000   -0.0000   -0.0000   -0.0000   -0.0000    0.0000    0.0000   -0.0000    0.0000
   89 S6     2py        0.0000   -0.0000   -0.0000   -0.0000   -0.0000    0.0001    0.0000   -0.0000   -0.0000    0.0000
   90 S6     3py       -0.0000   -0.0000   -0.0000   -0.0000   -0.0000   -0.0000    0.0000   -0.0000   -0.0000    0.0000
   91 S6     2pz       -0.0000   -0.0000   -0.0000   -0.0000   -0.0000   -0.0000   -0.0000    0.0000    0.0000    0.0000
   92 S6     3pz       -0.0000   -0.0000   -0.0000   -0.0000   -0.0000    0.0000   -0.0000    0.0000    0.0000    0.0000
   93 O7     1s        -0.0000    0.0000   -0.0000    0.0000   -0.0000    0.0000    0.0000    0.0000   -0.0000   -0.0000
   94 O7     2s        -0.0000    0.0000   -0.0000    0.0000   -0.0000    0.0000    0.0000    0.0000   -0.0000   -0.0000
   95 O7     2px       -0.0000    0.0000   -0.0000    0.0000   -0.0000   -0.0000   -0.0000    0.0000   -0.0000    0.0000
   96 O7     2py        0.0000    0.0000   -0.0000    0.0000   -0.0000    0.0000    0.0000   -0.0000    0.0000   -0.0000
   97 O7     2pz        0.0000    0.0000   -0.0000   -0.0000   -0.0000   -0.0000   -0.0000    0.0000    0.0000    0.0000
   98 O8     1s        -0.0000   -0.0000    0.0000    0.0000    0.0000   -0.0000    0.0000   -0.0000    0.0000    0.0000
   99 O8     2s        -0.0000   -0.0000    0.0000    0.0000    0.0000   -0.0000    0.0000   -0.0000    0.0000    0.0000
  100 O8     2px        0.0000    0.0000    0.0000   -0.0000    0.0000    0.0000    0.0000    0.0000   -0.0000    0.0000
  101 O8     2py       -0.0000    0.0000   -0.0000   -0.0000   -0.0000    0.0000   -0.0000   -0.0000    0.0000   -0.0000
  102 O8     2pz        0.0000   -0.0000    0.0000    0.0000    0.0000   -0.0000    0.0000   -0.0000    0.0000    0.0000
  103 O9     1s         0.0000   -0.0000    0.0000   -0.0000    0.0000    0.0000    0.0000   -0.0000    0.0000    0.0000
  104 O9     2s         0.0000   -0.0000    0.0000   -0.0000    0.0000    0.0000    0.0000   -0.0000    0.0000    0.0000
  105 O9     2px       -0.0000    0.0000    0.0000   -0.0000    0.0000   -0.0000   -0.0000   -0.0000   -0.0000    0.0000
  106 O9     2py       -0.0000   -0.0000    0.0000   -0.0000    0.0000   -0.0000   -0.0000    0.0000   -0.0000    0.0000
  107 O9     2pz       -0.0000    0.0000    0.0000   -0.0000   -0.0000   -0.0000   -0.0000   -0.0000    0.0000    0.0000
  108 O10    1s         0.0000    0.0000    0.0000   -0.0000    0.0000    0.0000    0.0000   -0.0000    0.0000   -0.0000
  109 O10    2s         0.0000   -0.0000    0.0000   -0.0000    0.0000    0.0000    0.0000   -0.0000    0.0000   -0.0000
  110 O10    2px       -0.0000   -0.0000   -0.0000    0.0000    0.0000   -0.0000    0.0000   -0.0000   -0.0000   -0.0000
  111 O10    2py       -0.0000    0.0000   -0.0000    0.0000    0.0000   -0.0000    0.0000    0.0000   -0.0000   -0.0000
  112 O10    2pz       -0.0000    0.0000   -0.0000    0.0000    0.0000    0.0000    0.0000   -0.0000   -0.0000    0.0000
  113 C11    1s        -0.0000   -0.0000    0.0000    0.0000    0.0000   -0.0000   -0.0000   -0.0000    0.0000    0.0000
  114 C11    2s        -0.0000    0.0000    0.0000    0.0000   -0.0000   -0.0000    0.0000   -0.0000    0.0000    0.0000
  115 C11    2px       -0.0000   -0.0000   -0.0000   -0.0000    0.0000    0.0000   -0.0000   -0.0000   -0.0000   -0.0000
  116 C11    2py        0.0000    0.0000   -0.0000   -0.0000    0.0000    0.0000   -0.0000    0.0000   -0.0000   -0.0000
  117 C11    2pz       -0.0000   -0.0000   -0.0000   -0.0000    0.0000    0.0000   -0.0000    0.0000    0.0000   -0.0000
  118 C12    1s         0.0000    0.0000    0.0000    0.0000   -0.0000   -0.0000    0.0000    0.0000   -0.0000   -0.0000
  119 C12    2s         0.0000   -0.0000    0.0000    0.0000   -0.0000   -0.0000    0.0000    0.0000   -0.0000   -0.0000
  120 C12    2px        0.0000   -0.0000    0.0000   -0.0000    0.0000    0.0000   -0.0000   -0.0000    0.0000    0.0000
  121 C12    2py       -0.0000    0.0000    0.0000   -0.0000    0.0000    0.0000   -0.0000    0.0000    0.0000    0.0000
  122 C12    2pz       -0.0000    0.0000   -0.0000   -0.0000    0.0000    0.0000   -0.0000   -0.0000    0.0000   -0.0000
  123 C13    1s        -0.0000   -0.0000   -0.0000   -0.0000   -0.0000   -0.0000    0.0000   -0.0000   -0.0000   -0.0000
  124 C13    2s        -0.0000   -0.0000   -0.0000   -0.0000    0.0000   -0.0000    0.0000   -0.0000   -0.0000   -0.0000
  125 C13    2px        0.0000    0.0000    0.0000    0.0000   -0.0000    0.0000   -0.0000   -0.0000    0.0000    0.0000
  126 C13    2py       -0.0000    0.0000    0.0000    0.0000   -0.0000    0.0000   -0.0000    0.0000    0.0000    0.0000
  127 C13    2pz        0.0000    0.0000    0.0000   -0.0000   -0.0000    0.0000   -0.0000    0.0000    0.0000    0.0000
  128 C14    1s         0.0000    0.0000    0.0000    0.0000   -0.0000   -0.0000    0.0000    0.0000    0.0000    0.0000
  129 C14    2s         0.0000    0.0000    0.0000    0.0000   -0.0000   -0.0000    0.0000    0.0000    0.0000    0.0000
  130 C14    2px       -0.0000   -0.0000   -0.0000    0.0000    0.0000    0.0000   -0.0000   -0.0000    0.0000    0.0000
  131 C14    2py        0.0000    0.0000   -0.0000    0.0000    0.0000    0.0000   -0.0000    0.0000   -0.0000    0.0000
  132 C14    2pz        0.0000    0.0000   -0.0000   -0.0000    0.0000    0.0000   -0.0000    0.0000   -0.0000    0.0000
  133 C15    1s        -0.0000   -0.0000   -0.0000    0.0000   -0.0000   -0.0000    0.0000   -0.0000   -0.0000   -0.0000
  134 C15    2s        -0.0000   -0.0000   -0.0000    0.0000   -0.0000   -0.0000    0.0000   -0.0000   -0.0000   -0.0000
  135 C15    2px       -0.0000    0.0000    0.0000    0.0000    0.0000    0.0000    0.0000   -0.0000    0.0000    0.0000
  136 C15    2py        0.0000    0.0000    0.0000   -0.0000    0.0000    0.0000    0.0000    0.0000    0.0000    0.0000
  137 C15    2pz       -0.0000   -0.0000   -0.0000   -0.0000    0.0000    0.0000    0.0000   -0.0000   -0.0000   -0.0000
  138 H16    1s         0.0000   -0.0000   -0.0000    0.0000   -0.0000   -0.0000    0.0000    0.0000   -0.0000   -0.0000
  139 H17    1s        -0.0000   -0.0000   -0.0000    0.0000    0.0000   -0.0000    0.0000    0.0000   -0.0000   -0.0000
  140 H18    1s        -0.0000   -0.0000   -0.0000    0.0000    0.0000   -0.0000    0.0000   -0.0000   -0.0000   -0.0000
  141 H19    1s        -0.0000   -0.0000   -0.0000   -0.0000    0.0000   -0.0000    0.0000   -0.0000   -0.0000   -0.0000
  142 H20    1s         0.0000    0.0000    0.0000   -0.0000    0.0000   -0.0000   -0.0000    0.0000    0.0000    0.0000
 
 
      Orbital               21        22        23        24        25        26        27        28        29        30
      Energy          -28.8183  -28.8181  -28.8095  -28.8091  -28.8046  -20.3114  -20.3051  -20.3048  -20.3011  -20.2664
      Occ. No.          2.0000    2.0000    2.0000    2.0000    2.0000    2.0000    2.0000    2.0000    2.0000    2.0000
 
    1 C1     1s         0.0000   -0.0000    0.0000    0.0000   -0.0000    0.0000   -0.0000   -0.0000    0.0000   -0.0000
    2 C1     2s         0.0000   -0.0000    0.0000    0.0000    0.0000    0.0000   -0.0000   -0.0000    0.0000   -0.0000
    3 C1     2px        0.0000   -0.0000    0.0000    0.0000   -0.0000   -0.0000    0.0000    0.0000   -0.0000   -0.0000
    4 C1     2py       -0.0000   -0.0000   -0.0000    0.0000   -0.0000   -0.0000    0.0000    0.0000   -0.0000    0.0000
    5 C1     2pz       -0.0000   -0.0000    0.0000   -0.0000    0.0000   -0.0000    0.0000    0.0000    0.0000    0.0000
    6 S2     1s         0.0000    0.0000    0.0000   -0.0000    0.0000    0.0000   -0.0000   -0.0000    0.0000   -0.0000
    7 S2     2s         0.0000    0.0000    0.0000   -0.0000    0.0000    0.0000   -0.0000   -0.0000    0.0000   -0.0002
    8 S2     3s         0.0000    0.0000    0.0000   -0.0000    0.0000    0.0000   -0.0000   -0.0000    0.0000   -0.0008
    9 S2     2px       -0.0000   -0.0000   -0.0000   -0.0000   -0.0000   -0.0000   -0.0000    0.0000   -0.0000    0.0001
   10 S2     3px        0.0000   -0.0000   -0.0000   -0.0000   -0.0000   -0.0000   -0.0000    0.0000   -0.0000    0.0009
   11 S2     2py        0.0000   -0.0000    0.0000   -0.0000   -0.0000   -0.0000    0.0000    0.0000   -0.0000    0.0000
   12 S2     3py       -0.0000   -0.0000    0.0000   -0.0000   -0.0000   -0.0000    0.0000    0.0000   -0.0000    0.0002
   13 S2     2pz       -0.0000    0.0000    0.0000   -0.0000    0.0000   -0.0000    0.0000    0.0000    0.0000   -0.0000
   14 S2     3pz       -0.0000    0.0000    0.0000   -0.0000    0.0000   -0.0000    0.0000    0.0000    0.0000   -0.0000
   15 O3     1s        -0.0000    0.0000   -0.0000   -0.0000    0.0000   -0.0000   -0.0000   -0.0000   -0.0000   -0.1486
   16 O3     2s        -0.0000    0.0000   -0.0000   -0.0000    0.0000    0.0000   -0.0000   -0.0000    0.0000   -0.0002
   17 O3     2px       -0.0000    0.0000   -0.0000    0.0000    0.0000    0.0000   -0.0000   -0.0000    0.0000    0.0001
   18 O3     2py        0.0000    0.0000    0.0000   -0.0000   -0.0000    0.0000    0.0000    0.0000   -0.0000   -0.0003
   19 O3     2pz       -0.0000    0.0000   -0.0000   -0.0000    0.0000   -0.0000   -0.0000   -0.0000    0.0000    0.0000
   20 U4     1s         0.0000    0.0000    0.0000    0.0000   -0.0000   -0.0000   -0.0000   -0.0000   -0.0000   -0.0000
   21 U4     2s         0.0000   -0.0000   -0.0000    0.0000   -0.0000   -0.0000   -0.0000   -0.0000   -0.0000   -0.0000
   22 U4     3s        -0.0000   -0.0000   -0.0000   -0.0000    0.0000   -0.0000   -0.0000   -0.0000   -0.0000   -0.0000
   23 U4     4s         0.0000   -0.0000    0.0000    0.0000    0.0004   -0.0001   -0.0000   -0.0000   -0.0001   -0.0000
   24 U4     5s         0.0000   -0.0000   -0.0000   -0.0000   -0.0001   -0.0002   -0.0000   -0.0000   -0.0002   -0.0000
   25 U4     6s        -0.0000    0.0000    0.0000    0.0000   -0.0000   -0.0006   -0.0001   -0.0001   -0.0006   -0.0001
   26 U4     7s         0.0000   -0.0000    0.0000    0.0000   -0.0000   -0.0006   -0.0002   -0.0002   -0.0006   -0.0002
   27 U4     2px        0.0000   -0.0000   -0.0000   -0.0000   -0.0000    0.0000    0.0000    0.0000   -0.0000   -0.0000
   28 U4     3px       -0.0000    0.0000    0.0000    0.0000    0.0000    0.0000    0.0000    0.0000   -0.0000   -0.0000
   29 U4     4px       -0.0000    0.0000    0.0000    0.0000    0.0000    0.0000    0.0000    0.0000   -0.0000   -0.0000
   30 U4     5px        0.0000   -0.0000   -0.0000   -0.0000   -0.0000    0.0000    0.0000    0.0000   -0.0000   -0.0000
   31 U4     6px       -0.0000    0.0000    0.0000    0.0000    0.0000    0.0000    0.0000    0.0001   -0.0000   -0.0000
   32 U4     7px        0.0000   -0.0000   -0.0000    0.0000   -0.0000   -0.0000    0.0001    0.0001   -0.0000   -0.0001
   33 U4     2py       -0.0000   -0.0000    0.0000   -0.0000   -0.0000    0.0000    0.0000    0.0000   -0.0000   -0.0000
   34 U4     3py        0.0000    0.0000   -0.0000    0.0000    0.0000    0.0000    0.0000    0.0000   -0.0000   -0.0000
   35 U4     4py        0.0000    0.0000   -0.0000    0.0000    0.0000    0.0000    0.0000    0.0000   -0.0000   -0.0000
   36 U4     5py       -0.0000   -0.0000    0.0000   -0.0000   -0.0000    0.0000    0.0000    0.0000   -0.0000   -0.0000
   37 U4     6py        0.0000    0.0000   -0.0000    0.0000    0.0000    0.0000    0.0001    0.0001   -0.0000   -0.0001
   38 U4     7py       -0.0000   -0.0000    0.0000    0.0000   -0.0000   -0.0000    0.0003    0.0003   -0.0000   -0.0002
   39 U4     2pz       -0.0000   -0.0000    0.0000    0.0000   -0.0000    0.0000    0.0000    0.0000   -0.0000   -0.0000
   40 U4     3pz        0.0000    0.0000   -0.0000   -0.0000    0.0000    0.0000    0.0000    0.0000   -0.0000   -0.0000
   41 U4     4pz       -0.0000   -0.0000   -0.0000   -0.0000    0.0000    0.0000    0.0000    0.0000   -0.0000   -0.0000
   42 U4     5pz       -0.0000   -0.0000    0.0000    0.0000   -0.0000    0.0001    0.0000    0.0000   -0.0001   -0.0000
   43 U4     6pz        0.0000   -0.0000   -0.0000    0.0000    0.0000    0.0006   -0.0000   -0.0000   -0.0006   -0.0000
   44 U4     7pz        0.0000   -0.0000    0.0000    0.0000   -0.0000    0.0005    0.0000    0.0000   -0.0005   -0.0000
   45 U4     3d2-       0.0000   -0.0000    0.0000    0.0000   -0.0000    0.0000   -0.0000   -0.0000    0.0000   -0.0000
   46 U4     4d2-       0.7757   -0.6310    0.0053    0.0033   -0.0044   -0.0000    0.0000   -0.0000   -0.0000    0.0000
   47 U4     5d2-      -0.0002    0.0002   -0.0000   -0.0000    0.0000    0.0000    0.0000   -0.0000    0.0000    0.0000
   48 U4     6d2-       0.0000   -0.0000    0.0000    0.0000   -0.0000   -0.0000   -0.0000   -0.0002   -0.0000   -0.0000
   49 U4     3d1-       0.0000    0.0000   -0.0000    0.0000    0.0000   -0.0000    0.0000    0.0000    0.0000    0.0000
   50 U4     4d1-       0.0027    0.0054   -0.3350    0.9422    0.0088   -0.0000    0.0000    0.0000   -0.0000   -0.0000
   51 U4     5d1-      -0.0000   -0.0000    0.0001   -0.0002   -0.0000   -0.0000    0.0000    0.0000    0.0000   -0.0000
   52 U4     6d1-       0.0000    0.0000   -0.0000    0.0001    0.0000   -0.0000    0.0000    0.0000   -0.0000   -0.0000
   53 U4     3d0       -0.0000    0.0000    0.0000   -0.0000    0.0000   -0.0000    0.0000    0.0000   -0.0000    0.0000
   54 U4     4d0       -0.0000   -0.0071    0.0010   -0.0090    0.9999   -0.0000    0.0000    0.0000   -0.0000    0.0000
   55 U4     5d0       -0.0000    0.0000   -0.0000    0.0000   -0.0002   -0.0001    0.0000    0.0000   -0.0001    0.0000
   56 U4     6d0        0.0000    0.0000    0.0000    0.0000    0.0001   -0.0006    0.0001    0.0001   -0.0006    0.0001
   57 U4     3d1+      -0.0000    0.0000    0.0000    0.0000    0.0000   -0.0000    0.0000    0.0000    0.0000   -0.0000
   58 U4     4d1+      -0.0058    0.0025    0.9422    0.3350    0.0021   -0.0000   -0.0000    0.0000   -0.0000   -0.0000
   59 U4     5d1+       0.0000   -0.0000   -0.0002   -0.0001   -0.0000   -0.0000   -0.0000    0.0000    0.0000   -0.0000
   60 U4     6d1+      -0.0000    0.0000    0.0000    0.0000    0.0000   -0.0000    0.0000    0.0000   -0.0000   -0.0000
   61 U4     3d2+       0.0000    0.0000    0.0000   -0.0000    0.0000   -0.0000    0.0000    0.0000   -0.0000    0.0000
   62 U4     4d2+       0.6310    0.7757    0.0036   -0.0050    0.0055    0.0000    0.0000    0.0000    0.0000    0.0000
   63 U4     5d2+      -0.0002   -0.0002   -0.0000    0.0000   -0.0000   -0.0000    0.0000    0.0000   -0.0000    0.0000
   64 U4     6d2+       0.0000    0.0000    0.0000   -0.0000    0.0000    0.0000    0.0002    0.0001    0.0000    0.0002
   65 U4     4f3-       0.0000    0.0000    0.0000   -0.0000    0.0000    0.0000   -0.0000    0.0000    0.0000    0.0000
   66 U4     5f3-       0.0000    0.0000    0.0000   -0.0000    0.0000    0.0000   -0.0000    0.0000    0.0000    0.0000
   67 U4     4f2-      -0.0000    0.0000    0.0000    0.0000    0.0000    0.0000    0.0000   -0.0000   -0.0000   -0.0000
   68 U4     5f2-       0.0000   -0.0000   -0.0000    0.0000   -0.0000    0.0000   -0.0000   -0.0000   -0.0000   -0.0000
   69 U4     4f1-       0.0000    0.0000    0.0000   -0.0000    0.0000    0.0000   -0.0000   -0.0000   -0.0000    0.0000
   70 U4     5f1-       0.0000    0.0000    0.0000   -0.0000   -0.0000    0.0000   -0.0000   -0.0000   -0.0000    0.0000
   71 U4     4f0        0.0000    0.0000   -0.0000   -0.0000   -0.0000    0.0000    0.0000    0.0000   -0.0000    0.0000
   72 U4     5f0       -0.0000    0.0000    0.0000    0.0000   -0.0000    0.0001    0.0000    0.0000   -0.0001   -0.0000
   73 U4     4f1+      -0.0000    0.0000   -0.0000   -0.0000    0.0000    0.0000    0.0000   -0.0000   -0.0000   -0.0000
   74 U4     5f1+      -0.0000    0.0000   -0.0000   -0.0000    0.0000    0.0000   -0.0000   -0.0000   -0.0000    0.0000
   75 U4     4f2+      -0.0000   -0.0000    0.0000   -0.0000   -0.0000   -0.0000    0.0000   -0.0000    0.0000    0.0000
   76 U4     5f2+       0.0000    0.0000   -0.0000    0.0000    0.0000   -0.0000    0.0000    0.0000    0.0000   -0.0000
   77 U4     4f3+      -0.0000    0.0000   -0.0000   -0.0000    0.0000    0.0000    0.0000   -0.0000    0.0000   -0.0000
   78 U4     5f3+      -0.0000    0.0000   -0.0000   -0.0000    0.0000    0.0000   -0.0000   -0.0000    0.0000    0.0000
   79 O5     1s        -0.0000    0.0000   -0.0000    0.0000    0.0000   -0.0001   -0.0640    0.9980    0.0002    0.0000
   80 O5     2s        -0.0000    0.0000   -0.0000    0.0000    0.0000    0.0000   -0.0001    0.0016    0.0000   -0.0000
   81 O5     2px        0.0000    0.0000    0.0000    0.0000   -0.0000   -0.0000   -0.0000    0.0013   -0.0000    0.0000
   82 O5     2py       -0.0000   -0.0000    0.0000    0.0000    0.0000   -0.0000    0.0001   -0.0013   -0.0000   -0.0000
   83 O5     2pz        0.0000    0.0000    0.0000    0.0000    0.0000   -0.0000   -0.0000    0.0000    0.0000    0.0000
   84 S6     1s        -0.0000    0.0000    0.0000   -0.0000    0.0000    0.0000   -0.0000   -0.0000    0.0000   -0.0000
   85 S6     2s        -0.0000    0.0000    0.0000   -0.0000    0.0000    0.0000   -0.0002   -0.0002    0.0000   -0.0000
   86 S6     3s        -0.0000    0.0000    0.0000   -0.0000    0.0000    0.0000   -0.0008   -0.0009    0.0000   -0.0000
   87 S6     2px        0.0000    0.0000    0.0000    0.0000    0.0000    0.0000   -0.0001    0.0001    0.0000    0.0000
   88 S6     3px       -0.0000    0.0000    0.0000    0.0000    0.0000    0.0000   -0.0009    0.0004    0.0000    0.0000
   89 S6     2py       -0.0000    0.0000   -0.0000    0.0000    0.0000    0.0000   -0.0000   -0.0001    0.0000   -0.0000
   90 S6     3py        0.0000    0.0000   -0.0000    0.0000    0.0000    0.0000   -0.0002   -0.0007    0.0000   -0.0000
[...]
 
      Total       -0.1114  -0.1200  -0.1112  -0.1118  -0.0965   0.1043   0.0979   0.0983   0.1049   0.1579
--
 
 
      Natural Bond Order analysis for root number:  3
 
++    Natural Bond Order analysis
      ---------------------------
      Based on LoProp computed density
      -------------------------------------------------------------------------------------
      Atom A       Atom B       Bond Order | Atom A       Atom B       Bond Order
        C1           C11            1.839  |   C1           S2             0.985
        C1           C15            0.998  |   S2           O3             0.991
        U4           O9             3.000  |   S2           O8             0.991
        U4           O10            2.000  |   C11          C12            1.827
        O5           S6             1.993  |   C11          H16            0.991
        S6           O7             1.993  |   C12          H17            0.992
        C12          C13            1.842  |   C13          H18            0.989
        C13          C14            1.830  |   C14          C15            1.816
        C15          H20            1.000  |   C14          H19            0.991
      -------------------------------------------------------------------------------------
      NBO located    127.999 core electrons.
      NBO located     28.887 lone pair electrons.
      NBO located     54.137 electrons involved in   18 bonds.
      NBO located      0.909 non-bonded electrons on atom U4        
      NBO located      1.002 non-bonded electrons on atom U4        
      The remaining    1.066 electrons are to be considered as diffuse
--
 
--
 
      Von Neumann Entropy (Root  4) =  1.00001
 

      Mulliken population analysis for root number:  4
      -----------------------------------------------
 
 
++    Molecular charges:
      ------------------
 
      Mulliken charges per centre and basis function type
      ---------------------------------------------------
 
                C1      S2      O3      U4      O5      S6      O7      O8      O9      O10     C11     C12   
      1s       2.0002  2.0000  2.0002  2.0000  2.0002  2.0000  2.0002  2.0002  2.0002  2.0002  2.0002  2.0002
      2s       1.1286  2.0003  1.9036  2.0000  1.9077  2.0003  1.9078  1.9036  1.8697  1.8675  1.1125  1.1097
      2px      1.0160  2.0002  1.6931  2.0000  1.7018  2.0002  1.2695  1.1996  1.6073  1.6094  1.0000  1.0275
      2pz      0.9815  2.0001  1.9122  2.0000  1.7455  2.0000  1.7435  1.9121  1.4997  1.5104  1.0513  0.9744
      2py      0.9925  2.0001  1.2279  2.0000  1.3411  2.0002  1.7746  1.7212  1.6075  1.6122  1.0040  1.0650
      3s       0.0000  1.6524  0.0000  2.0000  0.0000  1.7231  0.0000  0.0000  0.0000  0.0000  0.0000  0.0000
      3px      0.0000  0.9321  0.0000  2.0000  0.0000  0.8300  0.0000  0.0000  0.0000  0.0000  0.0000  0.0000
      3pz      0.0000  1.2950  0.0000  2.0000  0.0000  1.5001  0.0000  0.0000  0.0000  0.0000  0.0000  0.0000
      3py      0.0000  1.2045  0.0000  2.0000  0.0000  1.2485  0.0000  0.0000  0.0000  0.0000  0.0000  0.0000
      4s       0.0000  0.0000  0.0000  2.0000  0.0000  0.0000  0.0000  0.0000  0.0000  0.0000  0.0000  0.0000
      3d2+     0.0000  0.0000  0.0000  2.0000  0.0000  0.0000  0.0000  0.0000  0.0000  0.0000  0.0000  0.0000
      3d1+     0.0000  0.0000  0.0000  2.0000  0.0000  0.0000  0.0000  0.0000  0.0000  0.0000  0.0000  0.0000
      3d0      0.0000  0.0000  0.0000  2.0000  0.0000  0.0000  0.0000  0.0000  0.0000  0.0000  0.0000  0.0000
      3d1-     0.0000  0.0000  0.0000  2.0000  0.0000  0.0000  0.0000  0.0000  0.0000  0.0000  0.0000  0.0000
      3d2-     0.0000  0.0000  0.0000  2.0000  0.0000  0.0000  0.0000  0.0000  0.0000  0.0000  0.0000  0.0000
      4px      0.0000  0.0000  0.0000  2.0000  0.0000  0.0000  0.0000  0.0000  0.0000  0.0000  0.0000  0.0000
      4pz      0.0000  0.0000  0.0000  2.0000  0.0000  0.0000  0.0000  0.0000  0.0000  0.0000  0.0000  0.0000
      4py      0.0000  0.0000  0.0000  2.0000  0.0000  0.0000  0.0000  0.0000  0.0000  0.0000  0.0000  0.0000
      5s       0.0000  0.0000  0.0000  2.0000  0.0000  0.0000  0.0000  0.0000  0.0000  0.0000  0.0000  0.0000
      4d2+     0.0000  0.0000  0.0000  2.0000  0.0000  0.0000  0.0000  0.0000  0.0000  0.0000  0.0000  0.0000
      4d1+     0.0000  0.0000  0.0000  2.0000  0.0000  0.0000  0.0000  0.0000  0.0000  0.0000  0.0000  0.0000
      4d0      0.0000  0.0000  0.0000  2.0000  0.0000  0.0000  0.0000  0.0000  0.0000  0.0000  0.0000  0.0000
      4d1-     0.0000  0.0000  0.0000  2.0000  0.0000  0.0000  0.0000  0.0000  0.0000  0.0000  0.0000  0.0000
      4d2-     0.0000  0.0000  0.0000  2.0000  0.0000  0.0000  0.0000  0.0000  0.0000  0.0000  0.0000  0.0000
      5px      0.0000  0.0000  0.0000  2.0000  0.0000  0.0000  0.0000  0.0000  0.0000  0.0000  0.0000  0.0000
      5pz      0.0000  0.0000  0.0000  2.0001  0.0000  0.0000  0.0000  0.0000  0.0000  0.0000  0.0000  0.0000
      5py      0.0000  0.0000  0.0000  2.0000  0.0000  0.0000  0.0000  0.0000  0.0000  0.0000  0.0000  0.0000
      6s       0.0000  0.0000  0.0000  1.9860  0.0000  0.0000  0.0000  0.0000  0.0000  0.0000  0.0000  0.0000
      4f3+     0.0000  0.0000  0.0000  2.0000  0.0000  0.0000  0.0000  0.0000  0.0000  0.0000  0.0000  0.0000
      4f2+     0.0000  0.0000  0.0000  2.0000  0.0000  0.0000  0.0000  0.0000  0.0000  0.0000  0.0000  0.0000
      4f1+     0.0000  0.0000  0.0000  2.0000  0.0000  0.0000  0.0000  0.0000  0.0000  0.0000  0.0000  0.0000
      4f0      0.0000  0.0000  0.0000  2.0000  0.0000  0.0000  0.0000  0.0000  0.0000  0.0000  0.0000  0.0000
      4f1-     0.0000  0.0000  0.0000  2.0000  0.0000  0.0000  0.0000  0.0000  0.0000  0.0000  0.0000  0.0000
      4f2-     0.0000  0.0000  0.0000  2.0000  0.0000  0.0000  0.0000  0.0000  0.0000  0.0000  0.0000  0.0000
      4f3-     0.0000  0.0000  0.0000  2.0000  0.0000  0.0000  0.0000  0.0000  0.0000  0.0000  0.0000  0.0000
      5d2+     0.0000  0.0000  0.0000  1.9999  0.0000  0.0000  0.0000  0.0000  0.0000  0.0000  0.0000  0.0000
      5d1+     0.0000  0.0000  0.0000  1.9998  0.0000  0.0000  0.0000  0.0000  0.0000  0.0000  0.0000  0.0000
      5d0      0.0000  0.0000  0.0000  1.9987  0.0000  0.0000  0.0000  0.0000  0.0000  0.0000  0.0000  0.0000
      5d1-     0.0000  0.0000  0.0000  1.9998  0.0000  0.0000  0.0000  0.0000  0.0000  0.0000  0.0000  0.0000
      5d2-     0.0000  0.0000  0.0000  1.9999  0.0000  0.0000  0.0000  0.0000  0.0000  0.0000  0.0000  0.0000
      6px      0.0000  0.0000  0.0000  1.9820  0.0000  0.0000  0.0000  0.0000  0.0000  0.0000  0.0000  0.0000
      6pz      0.0000  0.0000  0.0000  1.7885  0.0000  0.0000  0.0000  0.0000  0.0000  0.0000  0.0000  0.0000
      6py      0.0000  0.0000  0.0000  1.9748  0.0000  0.0000  0.0000  0.0000  0.0000  0.0000  0.0000  0.0000
      7s       0.0000  0.0000  0.0000  0.1727  0.0000  0.0000  0.0000  0.0000  0.0000  0.0000  0.0000  0.0000
      5f3+     0.0000  0.0000  0.0000  0.2718  0.0000  0.0000  0.0000  0.0000  0.0000  0.0000  0.0000  0.0000
      5f2+     0.0000  0.0000  0.0000  0.0041  0.0000  0.0000  0.0000  0.0000  0.0000  0.0000  0.0000  0.0000
      5f1+     0.0000  0.0000  0.0000  0.3032  0.0000  0.0000  0.0000  0.0000  0.0000  0.0000  0.0000  0.0000
      5f0      0.0000  0.0000  0.0000  0.9646  0.0000  0.0000  0.0000  0.0000  0.0000  0.0000  0.0000  0.0000
      5f1-     0.0000  0.0000  0.0000  0.2984  0.0000  0.0000  0.0000  0.0000  0.0000  0.0000  0.0000  0.0000
      5f2-     0.0000  0.0000  0.0000  0.0050  0.0000  0.0000  0.0000  0.0000  0.0000  0.0000  0.0000  0.0000
      5f3-     0.0000  0.0000  0.0000  0.7292  0.0000  0.0000  0.0000  0.0000  0.0000  0.0000  0.0000  0.0000
      6d2+     0.0000  0.0000  0.0000  0.0959  0.0000  0.0000  0.0000  0.0000  0.0000  0.0000  0.0000  0.0000
      6d1+     0.0000  0.0000  0.0000  0.4805  0.0000  0.0000  0.0000  0.0000  0.0000  0.0000  0.0000  0.0000
      6d0      0.0000  0.0000  0.0000  0.4468  0.0000  0.0000  0.0000  0.0000  0.0000  0.0000  0.0000  0.0000
      6d1-     0.0000  0.0000  0.0000  0.4783  0.0000  0.0000  0.0000  0.0000  0.0000  0.0000  0.0000  0.0000
      6d2-     0.0000  0.0000  0.0000  0.1271  0.0000  0.0000  0.0000  0.0000  0.0000  0.0000  0.0000  0.0000
      7px      0.0000  0.0000  0.0000  0.1169  0.0000  0.0000  0.0000  0.0000  0.0000  0.0000  0.0000  0.0000
      7pz      0.0000  0.0000  0.0000  0.0912  0.0000  0.0000  0.0000  0.0000  0.0000  0.0000  0.0000  0.0000
      7py      0.0000  0.0000  0.0000  0.1385  0.0000  0.0000  0.0000  0.0000  0.0000  0.0000  0.0000  0.0000
      Total    6.1188 15.0847  8.7369 90.4539  8.6963 15.3025  8.6957  8.7368  8.5845  8.5997  6.1680  6.1769
 
      N-E     -0.1188  0.9153 -0.7369  1.5461 -0.6963  0.6975 -0.6957 -0.7368 -0.5845 -0.5997 -0.1680 -0.1769
 
                C13     C14     C15     H16     H17     H18     H19     H20   
      1s       2.0002  2.0002  2.0002  0.8371  0.8455  0.8449  0.8354  0.7852
      2s       1.1129  1.1129  1.1225  0.0000  0.0000  0.0000  0.0000  0.0000
      2px      1.0059  1.0085  0.9596  0.0000  0.0000  0.0000  0.0000  0.0000
      2pz      1.0497  1.0542  0.9613  0.0000  0.0000  0.0000  0.0000  0.0000
      2py      1.0020  0.9975  1.1099  0.0000  0.0000  0.0000  0.0000  0.0000
      3s       0.0000  0.0000  0.0000  0.0000  0.0000  0.0000  0.0000  0.0000
      3px      0.0000  0.0000  0.0000  0.0000  0.0000  0.0000  0.0000  0.0000
      3pz      0.0000  0.0000  0.0000  0.0000  0.0000  0.0000  0.0000  0.0000
      3py      0.0000  0.0000  0.0000  0.0000  0.0000  0.0000  0.0000  0.0000
      4s       0.0000  0.0000  0.0000  0.0000  0.0000  0.0000  0.0000  0.0000
      3d2+     0.0000  0.0000  0.0000  0.0000  0.0000  0.0000  0.0000  0.0000
      3d1+     0.0000  0.0000  0.0000  0.0000  0.0000  0.0000  0.0000  0.0000
      3d0      0.0000  0.0000  0.0000  0.0000  0.0000  0.0000  0.0000  0.0000
      3d1-     0.0000  0.0000  0.0000  0.0000  0.0000  0.0000  0.0000  0.0000
      3d2-     0.0000  0.0000  0.0000  0.0000  0.0000  0.0000  0.0000  0.0000
      4px      0.0000  0.0000  0.0000  0.0000  0.0000  0.0000  0.0000  0.0000
      4pz      0.0000  0.0000  0.0000  0.0000  0.0000  0.0000  0.0000  0.0000
      4py      0.0000  0.0000  0.0000  0.0000  0.0000  0.0000  0.0000  0.0000
      5s       0.0000  0.0000  0.0000  0.0000  0.0000  0.0000  0.0000  0.0000
      4d2+     0.0000  0.0000  0.0000  0.0000  0.0000  0.0000  0.0000  0.0000
      4d1+     0.0000  0.0000  0.0000  0.0000  0.0000  0.0000  0.0000  0.0000
      4d0      0.0000  0.0000  0.0000  0.0000  0.0000  0.0000  0.0000  0.0000
      4d1-     0.0000  0.0000  0.0000  0.0000  0.0000  0.0000  0.0000  0.0000
      4d2-     0.0000  0.0000  0.0000  0.0000  0.0000  0.0000  0.0000  0.0000
      5px      0.0000  0.0000  0.0000  0.0000  0.0000  0.0000  0.0000  0.0000
      5pz      0.0000  0.0000  0.0000  0.0000  0.0000  0.0000  0.0000  0.0000
      5py      0.0000  0.0000  0.0000  0.0000  0.0000  0.0000  0.0000  0.0000
      6s       0.0000  0.0000  0.0000  0.0000  0.0000  0.0000  0.0000  0.0000
      4f3+     0.0000  0.0000  0.0000  0.0000  0.0000  0.0000  0.0000  0.0000
      4f2+     0.0000  0.0000  0.0000  0.0000  0.0000  0.0000  0.0000  0.0000
      4f1+     0.0000  0.0000  0.0000  0.0000  0.0000  0.0000  0.0000  0.0000
      4f0      0.0000  0.0000  0.0000  0.0000  0.0000  0.0000  0.0000  0.0000
      4f1-     0.0000  0.0000  0.0000  0.0000  0.0000  0.0000  0.0000  0.0000
      4f2-     0.0000  0.0000  0.0000  0.0000  0.0000  0.0000  0.0000  0.0000
      4f3-     0.0000  0.0000  0.0000  0.0000  0.0000  0.0000  0.0000  0.0000
      5d2+     0.0000  0.0000  0.0000  0.0000  0.0000  0.0000  0.0000  0.0000
      5d1+     0.0000  0.0000  0.0000  0.0000  0.0000  0.0000  0.0000  0.0000
      5d0      0.0000  0.0000  0.0000  0.0000  0.0000  0.0000  0.0000  0.0000
      5d1-     0.0000  0.0000  0.0000  0.0000  0.0000  0.0000  0.0000  0.0000
      5d2-     0.0000  0.0000  0.0000  0.0000  0.0000  0.0000  0.0000  0.0000
      6px      0.0000  0.0000  0.0000  0.0000  0.0000  0.0000  0.0000  0.0000
      6pz      0.0000  0.0000  0.0000  0.0000  0.0000  0.0000  0.0000  0.0000
      6py      0.0000  0.0000  0.0000  0.0000  0.0000  0.0000  0.0000  0.0000
      7s       0.0000  0.0000  0.0000  0.0000  0.0000  0.0000  0.0000  0.0000
      5f3+     0.0000  0.0000  0.0000  0.0000  0.0000  0.0000  0.0000  0.0000
      5f2+     0.0000  0.0000  0.0000  0.0000  0.0000  0.0000  0.0000  0.0000
      5f1+     0.0000  0.0000  0.0000  0.0000  0.0000  0.0000  0.0000  0.0000
      5f0      0.0000  0.0000  0.0000  0.0000  0.0000  0.0000  0.0000  0.0000
      5f1-     0.0000  0.0000  0.0000  0.0000  0.0000  0.0000  0.0000  0.0000
      5f2-     0.0000  0.0000  0.0000  0.0000  0.0000  0.0000  0.0000  0.0000
      5f3-     0.0000  0.0000  0.0000  0.0000  0.0000  0.0000  0.0000  0.0000
      6d2+     0.0000  0.0000  0.0000  0.0000  0.0000  0.0000  0.0000  0.0000
      6d1+     0.0000  0.0000  0.0000  0.0000  0.0000  0.0000  0.0000  0.0000
      6d0      0.0000  0.0000  0.0000  0.0000  0.0000  0.0000  0.0000  0.0000
      6d1-     0.0000  0.0000  0.0000  0.0000  0.0000  0.0000  0.0000  0.0000
      6d2-     0.0000  0.0000  0.0000  0.0000  0.0000  0.0000  0.0000  0.0000
      7px      0.0000  0.0000  0.0000  0.0000  0.0000  0.0000  0.0000  0.0000
      7pz      0.0000  0.0000  0.0000  0.0000  0.0000  0.0000  0.0000  0.0000
      7py      0.0000  0.0000  0.0000  0.0000  0.0000  0.0000  0.0000  0.0000
      Total    6.1707  6.1733  6.1535  0.8371  0.8455  0.8449  0.8354  0.7852
 
      N-E     -0.1707 -0.1733 -0.1535  0.1629  0.1545  0.1551  0.1646  0.2148
 
      Total electronic charge=  214.000000
 
      Total            charge=   -1.000000
--
 
 

      Expectation values of various properties for root number:  4
      -----------------------------------------------------------
 
 
++    Molecular properties:
      ---------------------
 
      Charge (e):
                      =   -1.0000
      Dipole Moment (Debye):
      Origin of the operator (Ang)=    0.0000    0.0000    0.0000
                   X=  2.1864E-01               Y=  5.8062E-01               Z=  3.6531E-01           Total=  7.1998E-01
      Center of Charge (Ang)
                     X=   -0.04551974               Y=   -0.12088204               Z=   -0.07605577
      Quadrupole Moment (Debye*Ang):
      Origin of the operator (Ang)=    0.2503    0.7034    0.4512
                  XX= -1.5620E+02              XY= -1.5840E+00              XZ= -7.7532E-01              YY= -1.5989E+02
                  YZ= -2.4609E+00              ZZ= -1.5700E+02
      In traceless form (Debye*Ang)
                  XX=  2.2424E+00              XY= -2.3760E+00              XZ= -1.1630E+00              YY= -3.2870E+00
                  YZ= -3.6914E+00              ZZ=  1.0446E+00
--
 

      LoProp population analysis for root number:  4
      -----------------------------------------------
 
 
++    LoProp analysis:
      ----------------
 
 
 
  Input file to MOLDEN was generated!
 
 
++    Static properties:
      ------------------
 
 
      LoProp Charges per center
 

                   C1       S2       O3       U4       O5       S6       O7       O8       O9       O10   
      Nuclear      6.0000  16.0000   8.0000  92.0000   8.0000  16.0000   8.0000   8.0000   8.0000   8.0000
      Electronic  -6.1273 -14.9996  -8.8163 -89.5020  -8.7367 -15.2876  -8.7357  -8.8162  -8.9917  -8.9993
 
      Total       -0.1273   1.0004  -0.8163   2.4980  -0.7367   0.7124  -0.7357  -0.8162  -0.9917  -0.9993
 

                   C11      C12      C13      C14      C15      H16      H17      H18      H19      H20   
      Nuclear      6.0000   6.0000   6.0000   6.0000   6.0000   1.0000   1.0000   1.0000   1.0000   1.0000
      Electronic  -6.1114  -6.1200  -6.1112  -6.1117  -6.0966  -0.8957  -0.9021  -0.9017  -0.8951  -0.8421
 
      Total       -0.1114  -0.1200  -0.1112  -0.1117  -0.0966   0.1043   0.0979   0.0983   0.1049   0.1579
--
 
 
      Natural Bond Order analysis for root number:  4
 
++    Natural Bond Order analysis
      ---------------------------
      Based on LoProp computed density
      -------------------------------------------------------------------------------------
      Atom A       Atom B       Bond Order | Atom A       Atom B       Bond Order
        C1           C11            1.839  |   C1           S2             0.985
        C1           C15            0.998  |   S2           O3             0.990
        U4           O9             3.000  |   S2           O8             0.990
        U4           O10            2.000  |   C11          C12            1.827
        O5           S6             1.993  |   C11          H16            0.991
        S6           O7             1.993  |   C12          H17            0.992
        C12          C13            1.842  |   C13          H18            0.989
        C13          C14            1.830  |   C14          C15            1.816
        C15          H20            1.000  |   C14          H19            0.991
      -------------------------------------------------------------------------------------
      NBO located    127.999 core electrons.
      NBO located     28.899 lone pair electrons.
      NBO located     54.135 electrons involved in   18 bonds.
      NBO located      0.966 non-bonded electrons on atom U4        
      NBO located      1.013 non-bonded electrons on atom U4        
      The remaining    0.987 electrons are to be considered as diffuse
--
 
--
 
 
  Input file to MOLDEN was generated!
 
 
  Input file to MOLDEN was generated!
 
 
  Input file to MOLDEN was generated!
 
 
  Input file to MOLDEN was generated!
 
 
  Input file to MOLDEN was generated!
 
      Average orbitals are written to the RASORB file
      Natural orbitals for root   1 are written to the RASORB.1 file
      Natural orbitals for root   2 are written to the RASORB.2 file
      Natural orbitals for root   3 are written to the RASORB.3 file
      Natural orbitals for root   4 are written to the RASORB.4 file
      Spin density orbitals for root   1 are written to the SPDORB.1 file
      Spin density orbitals for root   2 are written to the SPDORB.2 file
      Spin density orbitals for root   3 are written to the SPDORB.3 file
      Spin density orbitals for root   4 are written to the SPDORB.4 file
 
--- Stop Module: rasscf at Tue Dec 17 19:45:01 2019 /rc=_RC_ALL_IS_WELL_ ---
*** files: UO2_C6H5SO2_SO2-m1-triplet.casscf.MB.LprOrb UO2_C6H5SO2_SO2-m1-triplet.casscf.MB.rasscf.molden.2 UO2_C6H5SO2_SO2-m1-triplet.casscf.MB.rasscf.molden
           UO2_C6H5SO2_SO2-m1-triplet.casscf.MB.rasscf.molden.1 UO2_C6H5SO2_SO2-m1-triplet.casscf.MB.rasscf.molden.4 UO2_C6H5SO2_SO2-m1-triplet.casscf.MB.rasscf.molden.3
           UO2_C6H5SO2_SO2-m1-triplet.casscf.MB.LoProp.molden UO2_C6H5SO2_SO2-m1-triplet.casscf.MB.RasOrb UO2_C6H5SO2_SO2-m1-triplet.casscf.MB.RasOrb.1
           UO2_C6H5SO2_SO2-m1-triplet.casscf.MB.RasOrb.4 UO2_C6H5SO2_SO2-m1-triplet.casscf.MB.RasOrb.3 UO2_C6H5SO2_SO2-m1-triplet.casscf.MB.RasOrb.2
           UO2_C6H5SO2_SO2-m1-triplet.casscf.MB.rasscf.h5 UO2_C6H5SO2_SO2-m1-triplet.casscf.MB.SpdOrb.3 UO2_C6H5SO2_SO2-m1-triplet.casscf.MB.SpdOrb.1
           UO2_C6H5SO2_SO2-m1-triplet.casscf.MB.SpdOrb.4 UO2_C6H5SO2_SO2-m1-triplet.casscf.MB.SpdOrb.2 xmldump
    saved to directory /home/vallet/John-sulfinate/U-complexes/UO2_C6H5SO2_SO2-m1/optg-freq-pbe0/SO-XMS
--- Module rasscf spent 2 minutes 0 seconds ---

>>> COPY UO2_C6H5SO2_SO2-m1-triplet.casscf.MB.RasOrb /home/vallet/John-sulfinate/U-complexes/UO2_C6H5SO2_SO2-m1/optg-freq-pbe0/SO-XMS/UO2_C6H5SO2_SO2-m1-triplet.casscf.MB.RasOrb_singlets

>>> COPY UO2_C6H5SO2_SO2-m1-triplet.casscf.MB.rasscf.molden /home/vallet/John-sulfinate/U-complexes/UO2_C6H5SO2_SO2-m1/optg-freq-pbe0/SO-XMS/UO2_C6H5SO2_SO2-m1-triplet.casscf.MB.rasscf_singlets.molden

    Timing: Wall=648.22 User=1667.95 System=90.35
