   This run of MOLCAS is using the pymolcas driver

                             OPE
                             OPE          NMOL  CASOP  ENMOLC A   SO
                 OPE        NMOLC        AS  OP EN  MO LC     AS  OP
                OPENM       OL CA        SO  PE NM  OL CA     SOP EN
                OP EN      MO   LC       AS  OP ENMOL  CASO   PENMOL
                OP  EN     MO   LC       AS  OP EN     MO     LC ASO
               OP   E  NMOL  C  AS       OP  EN MO     LC     AS  OP
               OP  E   NMO   LC AS        OPEN  MO     LCASOP EN   M
               O  PEN   MO  LCA  SO
            OPE   NMO   L   CAS    OP
        OPENMOL  CASOP     ENMOL   CASOPE
     OPENMOLCA   SOPENMOLCASOPEN   MOLCASOPE
    OPENMOLCAS   OP           EN   MOL    CAS
    OPENMOLCAS       OP  ENM        O     LCA
    OPENMOLCAS    OPEN  MOLCASO     P  E  NMO
    OPENMOLCAS     OP               E  N  MOL
    OPENMOLCA   SO           PENM   O  L  CAS    OPEN    MO    LCAS
    OPENMOLCA   SOP           ENM   O  L  CAS   OP  EN  MOLC  AS   O
    OPENMOLCA   SOPE           NM      O  LCA   S      OP  EN MO
    OPENMOLC                AS         O  PEN   M      OL  CA  SOPE
    OPENMO        LCASOPE  NMOL        C  ASO   P      ENMOLC     AS
    OPE     NMO      LCA  SO     P     E   NM   OL  CA SO  PE N   MO
          OPENMOLCA            SOPE   NMO        LCAS  O    P  ENMO
     OPENMOLCASOPENMOLCASOPENMOLCASOPENMOLCA
        OPENMOLCASOPENMOLCASOPENMOLCASOPE
            OPENMOLCASOPENMOLCASOPENM
               OPENMOLCASOPENMOLCA        version: 18.09
                   OPENMOLCASO
                       OPE                tag: 259-g52797e1-dirty

 OpenMolcas is free software; you can redistribute it and/or modify it
 under the terms of the GNU Lesser General Public License version 2.1.
 OpenMolcas is distributed in the hope that it will be useful, but it
 is provided "as is" and without any express or implied warranties.
 For more details see the full text of the license in the file
 LICENSE or in <http://www.gnu.org/licenses/>.

                 Copyright (C) The OpenMolcas Authors
           For the author list and the recommended citation,
                   consult the file CONTRIBUTORS.md

           *************************************************
           * pymolcas version py2.05                       *
           *   build e639e37c9a57315123c35f99e509df06      *
           *   (after the EMIL interpreter by V. Veryazov) *
           *************************************************

configuration info
------------------
C Compiler ID: Intel
C flags: -I/share/apps/fftw/3.3.8/include -std=gnu99 -mcmodel=large -qopenmp
Fortran Compiler ID: Intel
Fortran flags: -fpp -mcmodel=large -i8 -r8 -heap-arrays -qopenmp
Definitions: _MOLCAS_;_I8_;_LINUX_;_MKL_;_FDE_
Parallel: OFF (GA=OFF)


   ----------------------------------------------------------------------------------------------------------------------------
  |
  |           Project: UO2_C6H5SO2_SO2-m1-triplet.rassi-SO-casscf-xmscaspt2.VTZP
  |    Submitted from: /home/vallet/John-sulfinate/U-complexes/UO2_C6H5SO2_SO2-m1/optg-freq-pbe0/SO-XMS
  |      Scratch area: /state/partition2/vallet/656533.phlam-s-sakura/UO2_C6H5SO2_SO2-m1-triplet.rassi-SO-casscf-xmscaspt2.VTZP
  |   Save outputs to: /home/vallet/John-sulfinate/U-complexes/UO2_C6H5SO2_SO2-m1/optg-freq-pbe0/SO-XMS
  |            Molcas: /home/pcmt/OpenMolcas/OpenMolcas-20190114
  |
  | Scratch area is empty
  |
  |    MOLCAS_DRIVER = /home/pcmt/OpenMolcas/OpenMolcas-20190114/sbin/pymolcas
  |   MOLCAS_LICENSE = /home/pcmt/molcas/license
  |    MOLCAS_MOLDEN = ON
  |    MOLCAS_NPROCS = 1
  |    MOLCAS_SOURCE = /home/pcmt/OpenMolcas/OpenMolcas-20190114
  | MOLCAS_STRUCTURE = 0
  |
   ----------------------------------------------------------------------------------------------------------------------------

++ ---------   Input file   ---------

&GATEWAY
   COORD=$HomeDir/UO2_C6H5SO2_SO2-m1.pbe0.optg-zaxis.xyz
   BASIS=ANO-RCC-VTZP
   Group=Nosym
   ANGM=0.0 0.0 0.0
   RICD

>>> COPY $Project.RunFile $HomeDir

&SEWARD

>>> COPY $HomeDir/UO2_C6H5SO2_SO2-m1-triplet.casscf.MB.RunFile RUNFIL1

>>> COPY $Project.RunFile RUNFIL2

>>> COPY $HomeDir/UO2_C6H5SO2_SO2-m1-triplet.casscf.MB.RasOrb_triplets INPORB

&EXPBAS

>>> COPY $Project.ExpOrb $HomeDir/$Project.ExpOrb_triplets

>>> COPY $HomeDir/UO2_C6H5SO2_SO2-m1-triplet.casscf.MB.RasOrb_singlets INPORB

&EXPBAS

>>> COPY $Project.ExpOrb $HomeDir/$Project.ExpOrb_singlets

>>> COPY $HomeDir/$Project.ExpOrb_triplets INPORB

&RASSCF
   Spin=3
   Symmetry=1
   Nactel=2 0 0
   Inactive=106
   Ras2=5
   CIRoots=4 4 1
   Lumorb

>>> COPY $Project.JobIph $HomeDir/$Project.JobIph_triplets

>>> COPY $Project.RasOrb $HomeDir/$Project.RasOrb_triplets

&CASPT2
    IPEA=0.0
    XMUL= ALL
    THRESHOLDS= 1.0D-09 1.0D-07
    MAXITER=150
    CONVERGENCE=1.0D-6
    IMAG=0.1

>>> COPY $Project.JobMix $HomeDir/$Project.JobMix_triplets

>>> COPY $HomeDir/$Project.ExpOrb_singlets INPORB

&RASSCF
   Spin=1
   Symmetry=1
   Nactel=2 0 0
   Inactive=106
   Ras2=5
   CIRoots=4 4 1

>>> COPY $Project.JobIph $HomeDir/$Project.JobIph_singlets

>>> COPY $Project.RasOrb $HomeDir/$Project.RasOrb_singlets

&CASPT2
    IPEA=0.0
    XMUL= ALL
    THRESHOLDS= 1.0D-09 1.0D-07
    MAXITER=150
    CONVERGENCE=1.0D-6
    IMAG=0.1

>>> COPY $Project.JobMix $HomeDir/$Project.JobMix_singlets

>>> COPY $HomeDir/$Project.JobIph_triplets JOB001

>>> COPY $HomeDir/$Project.JobIph_singlets JOB002

&RASSI
    EJob
    SPINorbit

>>> COPY $HomeDir/$Project.JobMix_triplets JOB001

>>> COPY $HomeDir/$Project.JobMix_singlets JOB002

&RASSI
    EJob
    SPINorbit

-- ----------------------------------

--- Start Module: gateway at Tue Dec 17 19:45:03 2019 ---
 
()()()()()()()()()()()()()()()()()()()()()()()()()()()()()()()()()()()()()()()()()()()()()()()()()()

                                              &GATEWAY

                                   only a single process is used
                       available to each process: 32 GB of memory, 8 threads
()()()()()()()()()()()()()()()()()()()()()()()()()()()()()()()()()()()()()()()()()()()()()()()()()()
 
 
++    Symmetry information:
      ---------------------
 
                    Character Table for C1 
 
                             E  
                    a        1  x, y, xy, Rz, z, xz, Ry, yz, Rx, I
--
 
 
++    Basis set information:
      ----------------------
 
 
      Basis set label: C.ANO-RCC...4S3P2D1F.
 
      Electronic valence basis set:
      ------------------
      Associated Effective Charge   6.000000 au
      Associated Actual Charge      6.000000 au
      Nuclear Model: Point charge
 
      Shell  nPrim  nBasis  Cartesian Spherical Contaminant
         s      14       4        X                  
         p       9       3        X                  
         d       4       2                 X         
         f       3       1                 X         
 
 
      Basis set label: S.ANO-RCC...5S4P2D1F.
 
      Electronic valence basis set:
      ------------------
      Associated Effective Charge  16.000000 au
      Associated Actual Charge     16.000000 au
      Nuclear Model: Point charge
 
      Shell  nPrim  nBasis  Cartesian Spherical Contaminant
         s      17       5        X                  
         p      12       4        X                  
         d       5       2                 X         
         f       4       1                 X         
 
 
      Basis set label: O.ANO-RCC...4S3P2D1F.
 
      Electronic valence basis set:
      ------------------
      Associated Effective Charge   8.000000 au
      Associated Actual Charge      8.000000 au
      Nuclear Model: Point charge
 
      Shell  nPrim  nBasis  Cartesian Spherical Contaminant
         s      14       4        X                  
         p       9       3        X                  
         d       4       2                 X         
         f       3       1                 X         
 
 
      Basis set label: U.ANO-RCC...9S8P6D4F2G1H.
 
      Electronic valence basis set:
      ------------------
      Associated Effective Charge  92.000000 au
      Associated Actual Charge     92.000000 au
      Nuclear Model: Point charge
 
      Shell  nPrim  nBasis  Cartesian Spherical Contaminant
         s      26       9        X                  
         p      23       8        X                  
         d      17       6                 X         
         f      13       4                 X         
         g       5       2                 X         
         h       3       1                 X         
 
 
      Basis set label: O.ANO-RCC...4S3P2D1F.
 
      Electronic valence basis set:
      ------------------
      Associated Effective Charge   8.000000 au
      Associated Actual Charge      8.000000 au
      Nuclear Model: Point charge
 
      Shell  nPrim  nBasis  Cartesian Spherical Contaminant
         s      14       4        X                  
         p       9       3        X                  
         d       4       2                 X         
         f       3       1                 X         
 
 
      Basis set label: S.ANO-RCC...5S4P2D1F.
 
      Electronic valence basis set:
      ------------------
      Associated Effective Charge  16.000000 au
      Associated Actual Charge     16.000000 au
      Nuclear Model: Point charge
 
      Shell  nPrim  nBasis  Cartesian Spherical Contaminant
         s      17       5        X                  
         p      12       4        X                  
         d       5       2                 X         
         f       4       1                 X         
 
 
      Basis set label: O.ANO-RCC...4S3P2D1F.
 
      Electronic valence basis set:
      ------------------
      Associated Effective Charge   8.000000 au
      Associated Actual Charge      8.000000 au
      Nuclear Model: Point charge
 
      Shell  nPrim  nBasis  Cartesian Spherical Contaminant
         s      14       4        X                  
         p       9       3        X                  
         d       4       2                 X         
         f       3       1                 X         
 
 
      Basis set label: C.ANO-RCC...4S3P2D1F.
 
      Electronic valence basis set:
      ------------------
      Associated Effective Charge   6.000000 au
      Associated Actual Charge      6.000000 au
      Nuclear Model: Point charge
 
      Shell  nPrim  nBasis  Cartesian Spherical Contaminant
         s      14       4        X                  
         p       9       3        X                  
         d       4       2                 X         
         f       3       1                 X         
 
 
      Basis set label: H.ANO-RCC...3S2P1D.
 
      Electronic valence basis set:
      ------------------
      Associated Effective Charge   1.000000 au
      Associated Actual Charge      1.000000 au
      Nuclear Model: Point charge
 
      Shell  nPrim  nBasis  Cartesian Spherical Contaminant
         s       8       3        X                  
         p       4       2        X                  
         d       3       1                 X         
--
 
 
++    Molecular structure info:
      -------------------------
 
                    ************************************************ 
                    **** Cartesian Coordinates / Bohr, Angstrom **** 
                    ************************************************ 
 
     Center  Label                x              y              z                     x              y              z
        1      C1               2.499786       7.030121       2.927715              1.322830       3.720180       1.549280
        2      S2               1.982795       5.587863      -0.143695              1.049250       2.956970      -0.076040
        3      O3               3.574852       3.178406       0.018878              1.891730       1.681940       0.009990
        4      U4               0.000000       0.000000       0.000000              0.000000       0.000000       0.000000
        5      O5              -3.616331      -3.192654       0.027344             -1.913680      -1.689480       0.014470
        6      S6              -1.989712      -5.582969       0.037360             -1.052910      -2.954380       0.019770
        7      O7               0.782366      -4.761789       0.027666              0.414010      -2.519830       0.014640
        8      O8              -0.771670       4.720271       0.022374             -0.408350       2.497860       0.011840
        9      O9              -0.004252      -0.025606      -3.402641             -0.002250      -0.013550      -1.800600
       10      O10              0.000000       0.000000       3.421028              0.000000       0.000000       1.810330
       11      C11              3.346781       9.503811       2.997314              1.771040       5.029200       1.586110
       12      C12              3.769134      10.673154       5.311491              1.994540       5.647990       2.810720
       13      C13              3.338428       9.349061       7.530313              1.766620       4.947310       3.984870
       14      C14              2.486143       6.862522       7.439776              1.315610       3.631490       3.936960
       15      C15              2.060595       5.685732       5.140244              1.090420       3.008760       2.720100
       16      H16              3.674648      10.509466       1.239868              1.944540       5.561370       0.656110
       17      H17              4.432844      12.610483       5.379162              2.345760       6.673180       2.846530
       18      H18              3.666409      10.252067       9.340274              1.940180       5.425160       4.942660
       19      H19              2.151491       5.834076       9.180006              1.138520       3.087260       4.857850
       20      H20              1.394410       3.747724       5.034041              0.737890       1.983210       2.663900
 
                    ************************************************* 
                    **** InterNuclear Distances / Bohr, Angstrom **** 
                    ************************************************* 
 
     Atom centers         Bohr        Angstrom
   19 H19      14 C14     2.048925        1.084244
   17 H17      12 C12     2.048983        1.084275
   18 H18      13 C13     2.049134        1.084355
   16 H16      11 C11     2.051208        1.085453
   20 H20      15 C15     2.052062        1.085905
   11 C11       1 C1      2.615604        1.384118
   15 C15      14 C14     2.617971        1.385371
   13 C13      12 C12     2.619523        1.386192
   15 C15       1 C1      2.625939        1.389587
   12 C12      11 C11     2.627007        1.390152
   14 C14      13 C13     2.630108        1.391793
    7 O7        6 S6      2.891166        1.529939
    6 S6        5 O5      2.891296        1.530008
    3 O3        2 S2      2.892501        1.530645
    8 O8        2 S2      2.892641        1.530720
    9 O9        4 U4      3.402740        1.800652
   10 O10       4 U4      3.421028        1.810330
    2 S2        1 C1      3.432338        1.816315
   16 H16       1 C1      4.041654        2.138751
   19 H19      15 C15     4.043507        2.139732
   18 H18      12 C12     4.052031        2.144243
   20 H20       1 C1      4.053715        2.145133
   17 H17      13 C13     4.057347        2.147056
   19 H19      13 C13     4.060225        2.148579
   18 H18      14 C14     4.061273        2.149133
   17 H17      11 C11     4.062530        2.149798
   16 H16      12 C12     4.076007        2.156930
   20 H20      14 C14     4.084288        2.161312
   20 H20      10 O10     4.311801        2.281707
   14 C14       1 C1      4.515194        2.389338
   12 C12       1 C1      4.534900        2.399766
   13 C13      11 C11     4.535648        2.400161
   14 C14      12 C12     4.549350        2.407412
   15 C15      13 C13     4.556892        2.411403
   15 C15      11 C11     4.563348        2.414820
    8 O8        3 O3      4.611899        2.440512
    7 O7        5 O5      4.670194        2.471360
   19 H19      18 H18     4.673254        2.472980
   18 H18      17 H17     4.673324        2.473016
   20 H20      19 H19     4.702665        2.488543
   17 H17      16 H16     4.703497        2.488983
    8 O8        4 U4      4.782984        2.531046
    4 U4        3 O3      4.783533        2.531336
    5 O5        4 U4      4.824069        2.552787
    7 O7        4 U4      4.825712        2.553657
    3 O3        1 C1      4.944978        2.616770
    8 O8        1 C1      4.947609        2.618162
   11 C11       2 S2      5.202022        2.752791
   13 C13       1 C1      5.221562        2.763132
   14 C14      11 C11     5.239521        2.772635
   15 C15      12 C12     5.274733        2.791269
   15 C15       2 S2      5.285418        2.796923
   16 H16       2 S2      5.385052        2.849647
   20 H20       3 O3      5.498210        2.909527
   20 H20       2 S2      5.526415        2.924453
   20 H20       8 O8      5.545679        2.934647
--
 
 
            Nuclear Potential Energy           2942.98495901 au
 
--- Stop Module: gateway at Tue Dec 17 19:48:09 2019 /rc=_RC_ALL_IS_WELL_ ---
*** files: UO2_C6H5SO2_SO2-m1-triplet.rassi-SO-casscf-xmscaspt2.VTZP.RICDLib xmldump
    saved to directory /home/vallet/John-sulfinate/U-complexes/UO2_C6H5SO2_SO2-m1/optg-freq-pbe0/SO-XMS
--- Module gateway spent 3 minutes 5 seconds ---

>>> COPY UO2_C6H5SO2_SO2-m1-triplet.rassi-SO-casscf-xmscaspt2.VTZP.RunFile /home/vallet/John-sulfinate/U-complexes/UO2_C6H5SO2_SO2-m1/optg-freq-pbe0/SO-XMS

--- Start Module: seward at Tue Dec 17 19:48:09 2019 ---
 
()()()()()()()()()()()()()()()()()()()()()()()()()()()()()()()()()()()()()()()()()()()()()()()()()()

                                              &SEWARD

                                   only a single process is used
                       available to each process: 32 GB of memory, 8 threads
()()()()()()()()()()()()()()()()()()()()()()()()()()()()()()()()()()()()()()()()()()()()()()()()()()
 
               SEWARD will generate:
                  Multipole Moment integrals up to order  2
                  Kinetic Energy integrals
                  Nuclear Attraction integrals (point charge)
                  One-Electron Hamiltonian integrals
                  Velocity integrals
                  Relativistic Douglas-Kroll-Hess integrals:
                    - Parametrization         : EXP
                    - DKH order of Hamiltonian: 2
                    - DKH order of Properties : 0
                         - multipole moment operators
                         - electric potential operators
                         - contact operators
                  Orbital angular momentum around ( 0.0000  0.0000  0.0000 )
                  Atomic mean-field integrals
                  RI decomposed two-electron repulsion integrals stored Cholesky style
                   - acCD auxiliary basis
                   - CD Threshold:   0.10E-03
 
                   Integrals are discarded if absolute value <: 0.10E-13
                   Integral cutoff threshold is set to       <: 0.10E-15
 
            Nuclear Potential Energy           2942.98495901 au
 
 
      Basis set specifications :
      Symmetry species         a  
      Basis functions          618
 
 
 Post_2Center_RI
 Detected lin. dependences in the auxiliary basis.
 # of AuxBas before l. d. removal:   5425
 # of AuxBas after  l. d. removal:   5406
 
 Sorry, Molden does not know how to handle
 functions with angular momentum larger than g
--- Stop Module: seward at Tue Dec 17 20:20:22 2019 /rc=_RC_ALL_IS_WELL_ ---
*** files: UO2_C6H5SO2_SO2-m1-triplet.rassi-SO-casscf-xmscaspt2.VTZP.GssOrb UO2_C6H5SO2_SO2-m1-triplet.rassi-SO-casscf-xmscaspt2.VTZP.guessorb.h5 xmldump
    saved to directory /home/vallet/John-sulfinate/U-complexes/UO2_C6H5SO2_SO2-m1/optg-freq-pbe0/SO-XMS
--- Module seward spent 32 minutes 12 seconds ---

>>> COPY /home/vallet/John-sulfinate/U-complexes/UO2_C6H5SO2_SO2-m1/optg-freq-pbe0/SO-XMS/UO2_C6H5SO2_SO2-m1-triplet.casscf.MB.RunFile RUNFIL1

>>> COPY UO2_C6H5SO2_SO2-m1-triplet.rassi-SO-casscf-xmscaspt2.VTZP.RunFile RUNFIL2

>>> COPY /home/vallet/John-sulfinate/U-complexes/UO2_C6H5SO2_SO2-m1/optg-freq-pbe0/SO-XMS/UO2_C6H5SO2_SO2-m1-triplet.casscf.MB.RasOrb_triplets INPORB

--- Start Module: expbas at Tue Dec 17 20:20:25 2019 ---
 
()()()()()()()()()()()()()()()()()()()()()()()()()()()()()()()()()()()()()()()()()()()()()()()()()()

                                              &EXPBAS

                                   only a single process is used
                       available to each process: 32 GB of memory, 8 threads
()()()()()()()()()()()()()()()()()()()()()()()()()()()()()()()()()()()()()()()()()()()()()()()()()()
 

 Header on input orbitals file:
* RASSCF average (pseudo-natural) orbitals

 Information from input runfile
           Number of symmetries    1
      Number of basis functions  142

 Information from expanded basis set runfile
           Number of symmetries    1
      Number of basis functions  618
 New orbitals have been built in file EXPORB
--- Stop Module: expbas at Tue Dec 17 20:20:25 2019 /rc=_RC_ALL_IS_WELL_ ---
*** files: UO2_C6H5SO2_SO2-m1-triplet.rassi-SO-casscf-xmscaspt2.VTZP.ExpOrb xmldump
    saved to directory /home/vallet/John-sulfinate/U-complexes/UO2_C6H5SO2_SO2-m1/optg-freq-pbe0/SO-XMS

>>> COPY UO2_C6H5SO2_SO2-m1-triplet.rassi-SO-casscf-xmscaspt2.VTZP.ExpOrb /home/vallet/John-sulfinate/U-complexes/UO2_C6H5SO2_SO2-m1/optg-freq-pbe0/SO-XMS/UO2_C6H5SO2_SO2-m1-triplet.rassi-SO-casscf-xmscaspt2.VTZP.ExpOrb_triplets

>>> COPY /home/vallet/John-sulfinate/U-complexes/UO2_C6H5SO2_SO2-m1/optg-freq-pbe0/SO-XMS/UO2_C6H5SO2_SO2-m1-triplet.casscf.MB.RasOrb_singlets INPORB

--- Start Module: expbas at Tue Dec 17 20:20:25 2019 ---
 
()()()()()()()()()()()()()()()()()()()()()()()()()()()()()()()()()()()()()()()()()()()()()()()()()()

                                              &EXPBAS

                                   only a single process is used
                       available to each process: 32 GB of memory, 8 threads
()()()()()()()()()()()()()()()()()()()()()()()()()()()()()()()()()()()()()()()()()()()()()()()()()()
 

 Header on input orbitals file:
* RASSCF average (pseudo-natural) orbitals

 Information from input runfile
           Number of symmetries    1
      Number of basis functions  142

 Information from expanded basis set runfile
           Number of symmetries    1
      Number of basis functions  618
 New orbitals have been built in file EXPORB
--- Stop Module: expbas at Tue Dec 17 20:20:26 2019 /rc=_RC_ALL_IS_WELL_ ---
*** files: UO2_C6H5SO2_SO2-m1-triplet.rassi-SO-casscf-xmscaspt2.VTZP.ExpOrb xmldump
    saved to directory /home/vallet/John-sulfinate/U-complexes/UO2_C6H5SO2_SO2-m1/optg-freq-pbe0/SO-XMS

>>> COPY UO2_C6H5SO2_SO2-m1-triplet.rassi-SO-casscf-xmscaspt2.VTZP.ExpOrb /home/vallet/John-sulfinate/U-complexes/UO2_C6H5SO2_SO2-m1/optg-freq-pbe0/SO-XMS/UO2_C6H5SO2_SO2-m1-triplet.rassi-SO-casscf-xmscaspt2.VTZP.ExpOrb_singlets

>>> COPY /home/vallet/John-sulfinate/U-complexes/UO2_C6H5SO2_SO2-m1/optg-freq-pbe0/SO-XMS/UO2_C6H5SO2_SO2-m1-triplet.rassi-SO-casscf-xmscaspt2.VTZP.ExpOrb_triplets INPORB

--- Start Module: rasscf at Tue Dec 17 20:20:26 2019 ---
 
()()()()()()()()()()()()()()()()()()()()()()()()()()()()()()()()()()()()()()()()()()()()()()()()()()

                                              &RASSCF

                                   only a single process is used
                       available to each process: 32 GB of memory, 8 threads
()()()()()()()()()()()()()()()()()()()()()()()()()()()()()()()()()()()()()()()()()()()()()()()()()()
 
 
      Header of the ONEINT file:
      --------------------------
      
      Integrals generated by seward 4.2.0  , Tue Dec 17 19:48:10 2019
 
 
      OrdInt status: non-squared
 
 
      Cartesian coordinates in Angstrom:
      -----------------------------------------------------
      No.  Label        X            Y            Z        
      -----------------------------------------------------
       1   C1         1.32283000   3.72018000   1.54928000
       2   S2         1.04925000   2.95697000  -0.07604000
       3   O3         1.89173000   1.68194000   0.00999000
       4   U4         0.00000000   0.00000000   0.00000000
       5   O5        -1.91368000  -1.68948000   0.01447000
       6   S6        -1.05291000  -2.95438000   0.01977000
       7   O7         0.41401000  -2.51983000   0.01464000
       8   O8        -0.40835000   2.49786000   0.01184000
       9   O9        -0.00225000  -0.01355000  -1.80060000
      10   O10        0.00000000   0.00000000   1.81033000
      11   C11        1.77104000   5.02920000   1.58611000
      12   C12        1.99454000   5.64799000   2.81072000
      13   C13        1.76662000   4.94731000   3.98487000
      14   C14        1.31561000   3.63149000   3.93696000
      15   C15        1.09042000   3.00876000   2.72010000
      16   H16        1.94454000   5.56137000   0.65611000
      17   H17        2.34576000   6.67318000   2.84653000
      18   H18        1.94018000   5.42516000   4.94266000
      19   H19        1.13852000   3.08726000   4.85785000
      20   H20        0.73789000   1.98321000   2.66390000
      -----------------------------------------------------
      Nuclear repulsion energy = 2942.98495901
 
++    Wave function specifications:
      -----------------------------
 
      Number of closed shell electrons         212
      Number of electrons in active shells       2
      Max number of holes in RAS1 space          0
      Max nr of electrons in RAS3 space          0
      Number of inactive orbitals              106
      Number of active orbitals                  5
      Number of secondary orbitals             507
      Spin quantum number                      1.0
      State symmetry                             1
--
 
++    Orbital specifications:
      -----------------------
 
      Symmetry species                           1
                                                 a
      Frozen orbitals                            0
      Inactive orbitals                        106
      Active orbitals                            5
      RAS1 orbitals                              0
      RAS2 orbitals                              5
      RAS3 orbitals                              0
      Secondary orbitals                       507
      Deleted orbitals                           0
      Number of basis functions                618
--
 
++    CI expansion specifications:
      ----------------------------
 
      Number of CSFs                            10
      Number of determinants                    10
      Number of root(s) required                 4
      Root chosen for geometry opt.              4
      CI roots used                              1     2     3     4
      weights                                0.250 0.250 0.250 0.250
      highest root included in the CI            4
      max. size of the explicit Hamiltonian     10
--
 
++    Optimization specifications:
      ----------------------------
 
      RASSCF algorithm: LK RI/DF
      Maximum number of macro iterations       200
      Maximum number of SX iterations          100
      Threshold for RASSCF energy            0.100E-07
      Threshold for max MO rotation          0.100E+00
      Threshold for max BLB element          0.100E-03
      Level shift parameter                  0.500E+00
      Make Quasi-Newton update
--
 
      The MO-coefficients are taken from the file:
      INPORB                                                                                                                          
      Title:Basis set expanded orbital file EXPORB                                         
 
      Total molecular charge   -1.00
 
      ************************************************************************************************************************
      *                                                                                                                      *
      *                                            Wave function control section                                             *
      *                                                                                                                      *
      ************************************************************************************************************************
 
 
                                         RASSCF iterations: Energy and convergence statistics
                                         ----------------------------------------------------
 
      Iter CI   SX   CI       RASSCF       Energy    max ROT     max BLB   max BLB  Level Ln srch  Step   QN   Walltime
          iter iter root      energy       change     param      element    value   shift minimum  type update hh:mm:ss
 Nr of preliminary CI iterations:   1
      Total energies have been shifted. Add               -29000.00 au
        1   1   19    0  -425.95818853    0.00E+00  -0.37E-01   68 143 1  0.22E+00*  0.57   0.00    SX    NO    0:29:02
        2   1   22    0  -426.92243101   -0.96E+00*  0.38E-01   68 143 1  0.10E+00*  0.58   0.00    SX    NO    0:18:41
        3   1   23    0  -427.18195042   -0.26E+00*  0.36E-01   91 130 1 -0.66E-01*  0.56   0.00    SX    NO    0:12:52
        4   1   22    0  -427.26463747   -0.83E-01*  0.27E-01   91 130 1 -0.43E-01*  0.57   0.00    SX    NO    0:15:00
        5   1   21    0  -427.29435376   -0.30E-01*  0.32E-01   91 130 1 -0.29E-01*  0.56   2.50    LS   YES    0:15:28
        6   1   21    0  -427.31121472   -0.17E-01*  0.20E-01   96 129 1 -0.16E-01*  0.56   1.31    QN   YES    0:12:52
        7   1   19    0  -427.31471189   -0.35E-02*  0.16E-01   96 129 1 -0.79E-02*  0.57   1.41    QN   YES    0:20:00
        8   1   17    0  -427.31599023   -0.13E-02* -0.68E-02   89 129 1 -0.31E-02*  0.56   1.29    QN   YES    0:17:54
        9   1   17    0  -427.31629950   -0.31E-03*  0.30E-02   89 129 1 -0.18E-02*  0.56   1.26    QN   YES    0:19:37
       10   1   15    0  -427.31636526   -0.66E-04* -0.22E-02   87 111 1  0.11E-02*  0.56   1.42    QN   YES    0:16:46
       11   1   14    0  -427.31638555   -0.20E-04* -0.20E-02   87 111 1  0.64E-03*  0.56   1.40    QN   YES    0:14:37
       12   1   13    0  -427.31639153   -0.60E-05*  0.19E-02   87 111 1  0.29E-03*  0.56   1.49    QN   YES    0:26:46
       13   1   12    0  -427.31639397   -0.24E-05*  0.20E-02   99 112 1 -0.13E-03*  0.56   1.60    QN   YES    0:19:20
       14   1   12    0  -427.31639530   -0.13E-05* -0.19E-02   87 111 1 -0.99E-04   0.56   1.62    QN   YES    0:16:48
       15   1   11    0  -427.31639606   -0.76E-06* -0.16E-02   87 111 1 -0.15E-03*  0.56   1.64    QN   YES    0:22:14
       16   1   11    0  -427.31639651   -0.45E-06*  0.13E-02   87 111 1 -0.14E-03*  0.56   1.65    QN   YES    0:23:42
       17   1   10    0  -427.31639678   -0.27E-06*  0.83E-03   87 111 1 -0.82E-04   0.56   1.56    QN   YES    0:21:34
       18   1   10    0  -427.31639691   -0.13E-06*  0.37E-03   99 112 1  0.41E-04   0.56   1.58    QN   YES    0:17:45
       19   1    9    0  -427.31639696   -0.49E-07* -0.14E-03   99 112 1  0.28E-04   0.56   1.40    QN   YES    0:17:35
       20   1    8    0  -427.31639697   -0.14E-07* -0.21E-03  103 113 1 -0.18E-04   0.56   2.50    LS   YES    0:14:10
       21   1    9    0  -427.31639696    0.73E-08  -0.95E-04   76 121 1 -0.21E-04   0.56   0.30    QN   YES    0:18:20
      Convergence after 21 iterations
       22   1    9    0  -427.31639698   -0.11E-07* -0.95E-04   76 121 1 -0.10E-04   0.56   0.30    QN   YES    0:17:44
 
      ************************************************************************************************************************
                                                      Wave function printout:
                       occupation of active orbitals, and spin coupling of open shells (u,d: Spin up or down)
      ************************************************************************************************************************
 
      Note: transformation to natural orbitals
      has been made, which may change the order of the CSFs.
 
      printout of CI-coefficients larger than  0.05 for root  1
      energy=  -29427.320094
      conf/sym  11111     Coeff  Weight
             4  u000u   0.99893 0.99786
 
      printout of CI-coefficients larger than  0.05 for root  2
      energy=  -29427.317581
      conf/sym  11111     Coeff  Weight
             9  00u0u   0.99828 0.99657
 
      printout of CI-coefficients larger than  0.05 for root  3
      energy=  -29427.317458
      conf/sym  11111     Coeff  Weight
             7  0u00u   0.99885 0.99770
 
      printout of CI-coefficients larger than  0.05 for root  4
      energy=  -29427.310455
      conf/sym  11111     Coeff  Weight
            10  000uu   0.99957 0.99914
 
      Natural orbitals and occupation numbers for root  1
      sym 1:   1.000000   0.000000  -0.000000   0.000000   1.000000
 
      Natural orbitals and occupation numbers for root  2
      sym 1:  -0.000000   0.000000   1.000000   0.000000   1.000000
 
      Natural orbitals and occupation numbers for root  3
      sym 1:   0.000000   1.000000   0.000000   0.000000   1.000000
 
      Natural orbitals and occupation numbers for root  4
      sym 1:   0.000000   0.000000   0.000000   1.000000   1.000000
 
      ************************************************************************************************************************
      *                                                                                                                      *
      *                                                    Final results                                                     *
      *                                                                                                                      *
      ************************************************************************************************************************
 
 
++    Wave function specifications:
      -----------------------------
 
      Number of closed shell electrons         212
      Number of electrons in active shells       2
      Max number of holes in RAS1 space          0
      Max nr of electrons in RAS3 space          0
      Number of inactive orbitals              106
      Number of active orbitals                  5
      Number of secondary orbitals             507
      Spin quantum number                      1.0
      State symmetry                             1
--
 
++    Orbital specifications:
      -----------------------
 
      Symmetry species                           1
                                                 a
      Frozen orbitals                            0
      Inactive orbitals                        106
      Active orbitals                            5
      RAS1 orbitals                              0
      RAS2 orbitals                              5
      RAS3 orbitals                              0
      Secondary orbitals                       507
      Deleted orbitals                           0
      Number of basis functions                618
--
 
++    CI expansion specifications:
      ----------------------------
 
      Number of CSFs                            10
      Number of determinants                    10
      Number of root(s) required                 4
      CI roots used                              1     2     3     4
      weights                                0.250 0.250 0.250 0.250
      highest root included in the CI            4
      Root passed to geometry opt.               4
--
 
++    Final optimization conditions:
      ------------------------------
 
      Average CI energy                          -29427.31639698
      RASSCF energy for state  4                 -29427.31045509
      Super-CI energy                                -0.00000001
      RASSCF energy change                           -0.00000001
      Max change in MO coefficients               0.115E-03
      Max non-diagonal density matrix element    -0.948E-04
      Maximum BLB matrix element                 -0.103E-04
      (orbital pair  76, 121 in symmetry   1)
      Norm of electronic gradient            0.154E+00
--
 
 
      Final state energy(ies):
      ------------------------
 
::    RASSCF root number  1 Total energy: -29427.32009363
::    RASSCF root number  2 Total energy: -29427.31758134
::    RASSCF root number  3 Total energy: -29427.31745784
::    RASSCF root number  4 Total energy: -29427.31045509
 
++    Molecular orbitals:
      -------------------
 
      Pseudonatural active orbitals and approximate occupation numbers
 
 
      MOLECULAR ORBITALS FOR SYMMETRY SPECIES 1: a  
 
      INDEX  ENERGY  OCCUPATION COEFFICIENTS ...
          1-4260.2313    2.0000                                                                                                           
                95 U4     1s     ( 1.0000)
          2 -804.1975    2.0000                                                                                                           
                96 U4     2s     ( 1.0000)
          3 -674.8687    2.0000                                                                                                           
               120 U4     2pz    ( 1.0000)
          4 -674.8684    2.0000                                                                                                           
               104 U4     2px    ( 0.3352) 112 U4     2py    ( 0.9421)
          5 -674.8682    2.0000                                                                                                           
               104 U4     2px    ( 0.9422) 112 U4     2py    (-0.3352)
          6 -206.2457    2.0000                                                                                                           
                97 U4     3s     ( 1.0000)
          7 -169.6454    2.0000                                                                                                           
               105 U4     3px    ( 0.3352) 113 U4     3py    ( 0.9421)
          8 -169.6450    2.0000                                                                                                           
               105 U4     3px    ( 0.9422) 113 U4     3py    (-0.3352)
          9 -169.6392    2.0000                                                                                                           
               121 U4     3pz    ( 1.0000)
         10 -135.0692    2.0000                                                                                                           
               128 U4     3d2-   (-0.6314) 152 U4     3d2+   ( 0.7754)
         11 -135.0691    2.0000                                                                                                           
               128 U4     3d2-   ( 0.7754) 152 U4     3d2+   ( 0.6314)
         12 -135.0670    2.0000                                                                                                           
               134 U4     3d1-   ( 0.9422) 146 U4     3d1+   ( 0.3351)
         13 -135.0669    2.0000                                                                                                           
               134 U4     3d1-   (-0.3351) 146 U4     3d1+   ( 0.9422)
         14 -135.0659    2.0000                                                                                                           
               140 U4     3d0    ( 1.0000)
         15  -92.2729    2.0000                                                                                                           
                31 S2     1s     ( 1.0000)
         16  -92.2520    2.0000                                                                                                           
               245 S6     1s     ( 1.0000)
         17  -54.2369    2.0000                                                                                                           
                98 U4     4s     ( 1.0000)
         18  -42.0191    2.0000                                                                                                           
               106 U4     4px    ( 0.3352) 114 U4     4py    ( 0.9422)
         19  -42.0186    2.0000                                                                                                           
               106 U4     4px    ( 0.9422) 114 U4     4py    (-0.3352)
         20  -42.0074    2.0000                                                                                                           
               122 U4     4pz    ( 1.0000)
         21  -28.7794    2.0000                                                                                                           
               129 U4     4d2-   ( 0.7759) 153 U4     4d2+   ( 0.6309)
         22  -28.7792    2.0000                                                                                                           
               129 U4     4d2-   (-0.6308) 153 U4     4d2+   ( 0.7758)
         23  -28.7731    2.0000                                                                                                           
               135 U4     4d1-   ( 0.9424) 147 U4     4d1+   ( 0.3345)
         24  -28.7730    2.0000                                                                                                           
               135 U4     4d1-   (-0.3345) 147 U4     4d1+   ( 0.9424)
         25  -28.7703    2.0000                                                                                                           
               141 U4     4d0    ( 0.9998)
         26  -20.4398    2.0000                                                                                                           
               215 O5     1s     ( 0.8317) 279 O7     1s     (-0.5543)
         27  -20.4398    2.0000                                                                                                           
               215 O5     1s     ( 0.5543) 279 O7     1s     ( 0.8317)
         28  -20.4229    2.0000                                                                                                           
                65 O3     1s     ( 0.9380) 309 O8     1s     (-0.3451)
         29  -20.4228    2.0000                                                                                                           
                65 O3     1s     ( 0.3452) 309 O8     1s     ( 0.9380)
         30  -20.3779    2.0000                                                                                                           
               369 O10    1s     ( 0.9997)
         31  -20.3777    2.0000                                                                                                           
               339 O9     1s     ( 0.9997)
         32  -14.9912    2.0000                                                                                                           
               158 U4     4f3-   ( 0.8544) 182 U4     4f3+   (-0.5191)
         33  -14.9910    2.0000                                                                                                           
               158 U4     4f3-   ( 0.5192) 182 U4     4f3+   ( 0.8546)
         34  -14.9871    2.0000                                                                                                           
               162 U4     4f2-   ( 0.2638) 170 U4     4f0    ( 0.7665) 178 U4     4f2+   (-0.5855)
         35  -14.9871    2.0000                                                                                                           
               162 U4     4f2-   ( 0.8308) 170 U4     4f0    ( 0.1277) 178 U4     4f2+   ( 0.5416)
         36  -14.9870    2.0000                                                                                                           
               162 U4     4f2-   (-0.4899) 170 U4     4f0    ( 0.6293) 178 U4     4f2+   ( 0.6031)
         37  -14.9784    2.0000                                                                                                           
               166 U4     4f1-   ( 0.9435) 174 U4     4f1+   ( 0.3312)
         38  -14.9783    2.0000                                                                                                           
               166 U4     4f1-   (-0.3311) 174 U4     4f1+   ( 0.9433)
         39  -12.5597    2.0000                                                                                                           
                99 U4     5s     ( 1.0004)
         40  -11.1571    2.0000                                                                                                           
                 1 C1     1s     (-0.1182) 399 C11    1s     (-0.3567) 429 C12    1s     (-0.2760) 459 C13    1s     (-0.8834)
      
         41  -11.1568    2.0000                                                                                                           
                 1 C1     1s     (-0.3523) 399 C11    1s     (-0.8343) 429 C12    1s     (-0.1004) 459 C13    1s     ( 0.4143)
      
         42  -11.1550    2.0000                                                                                                           
                 1 C1     1s     (-0.9182) 399 C11    1s     ( 0.3262) 429 C12    1s     ( 0.2157)
         43  -11.1540    2.0000                                                                                                           
                 1 C1     1s     (-0.1391) 399 C11    1s     ( 0.2719) 429 C12    1s     (-0.9329) 459 C13    1s     ( 0.1998)
      
         44  -11.1487    2.0000                                                                                                           
               489 C14    1s     (-0.9936) 519 C15    1s     (-0.1011)
         45  -11.1424    2.0000                                                                                                           
               489 C14    1s     (-0.1026) 519 C15    1s     ( 0.9961)
         46   -9.0132    2.0000                                                                                                           
                32 S2     2s     ( 0.9988)
         47   -8.9965    2.0000                                                                                                           
               246 S6     2s     ( 0.9990)
         48   -8.6547    2.0000                                                                                                           
               123 U4     5pz    ( 0.9995)
         49   -8.6490    2.0000                                                                                                           
               107 U4     5px    ( 0.3352) 115 U4     5py    ( 0.9420)
         50   -8.6472    2.0000                                                                                                           
               107 U4     5px    ( 0.9421) 115 U4     5py    (-0.3352)
         51   -6.6455    2.0000                                                                                                           
                36 S2     2px    (-0.1722)  40 S2     2py    (-0.6878)  44 S2     2pz    (-0.7058)
         52   -6.6455    2.0000                                                                                                           
                36 S2     2px    ( 0.9569)  40 S2     2py    (-0.2883)
         53   -6.6436    2.0000                                                                                                           
                36 S2     2px    (-0.2359)  40 S2     2py    (-0.6664)  44 S2     2pz    ( 0.7069)
         54   -6.6279    2.0000                                                                                                           
               250 S6     2px    ( 0.9425) 254 S6     2py    (-0.3364)
         55   -6.6269    2.0000                                                                                                           
               258 S6     2pz    ( 1.0000)
         56   -6.6265    2.0000                                                                                                           
               250 S6     2px    ( 0.3361) 254 S6     2py    ( 0.9417)
         57   -4.1321    2.0000                                                                                                           
               142 U4     5d0    ( 0.9982)
         58   -4.1218    2.0000                                                                                                           
               136 U4     5d1-   (-0.3341) 148 U4     5d1+   ( 0.9422)
         59   -4.1217    2.0000                                                                                                           
               136 U4     5d1-   ( 0.9422) 148 U4     5d1+   ( 0.3341)
         60   -4.1140    2.0000                                                                                                           
               130 U4     5d2-   (-0.6311) 154 U4     5d2+   ( 0.7751)
         61   -4.1134    2.0000                                                                                                           
               130 U4     5d2-   ( 0.7754) 154 U4     5d2+   ( 0.6313)
         62   -2.0556    2.0000                                                                                                           
               100 U4     6s     ( 0.9684)
         63   -1.2983    2.0000                                                                                                           
               124 U4     6pz    ( 0.5334) 340 O9     2s     (-0.4384) 349 O9     2pz    (-0.1246) 370 O10    2s     ( 0.4373)
               379 O10    2pz    (-0.1243)
         64   -1.2851    2.0000                                                                                                           
                33 S2     3s     (-0.2949)  66 O3     2s     (-0.4219) 116 U4     6py    (-0.1238) 216 O5     2s     ( 0.2514)
               247 S6     3s     ( 0.1646) 280 O7     2s     ( 0.2513) 310 O8     2s     (-0.4214)
         65   -1.2778    2.0000                                                                                                           
                33 S2     3s     ( 0.1851)  66 O3     2s     ( 0.2453) 216 O5     2s     ( 0.4334) 247 S6     3s     ( 0.3028)
               280 O7     2s     ( 0.4333) 310 O8     2s     ( 0.2450)
         66   -1.1785    2.0000                                                                                                           
                66 O3     2s     ( 0.1059) 216 O5     2s     (-0.5815) 251 S6     3px    ( 0.1914) 280 O7     2s     ( 0.5815)
               310 O8     2s     (-0.1060)
         67   -1.1709    2.0000                                                                                                           
                37 S2     3px    (-0.1915)  66 O3     2s     (-0.5808) 216 O5     2s     (-0.1189) 280 O7     2s     ( 0.1189)
               310 O8     2s     ( 0.5813)
         68   -1.0746    2.0000                                                                                                           
               100 U4     6s     (-0.2444) 143 U4     6d0    ( 0.1298) 340 O9     2s     ( 0.6184) 370 O10    2s     ( 0.6349)
      
         69   -1.0704    2.0000                                                                                                           
                 2 C1     2s     ( 0.2176) 340 O9     2s     (-0.1406) 370 O10    2s     (-0.1392) 400 C11    2s     ( 0.3291)
               430 C12    2s     ( 0.3226) 460 C13    2s     ( 0.2916) 490 C14    2s     ( 0.3227) 520 C15    2s     ( 0.3051)
      
         70   -0.9827    2.0000                                                                                                           
                33 S2     3s     (-0.1361) 108 U4     6px    ( 0.3049) 116 U4     6py    ( 0.8534) 247 S6     3s     ( 0.1019)
      
         71   -0.9791    2.0000                                                                                                           
               108 U4     6px    ( 0.9028) 116 U4     6py    (-0.3224)
         72   -0.9392    2.0000                                                                                                           
                 2 C1     2s     (-0.4161)  33 S2     3s     (-0.1159)  66 O3     2s     ( 0.1187) 116 U4     6py    (-0.1864)
               310 O8     2s     ( 0.1185) 400 C11    2s     (-0.3856) 430 C12    2s     ( 0.1793) 460 C13    2s     ( 0.5298)
               490 C14    2s     ( 0.3612) 520 C15    2s     (-0.1550)
         73   -0.9313    2.0000                                                                                                           
                 2 C1     2s     ( 0.1269) 400 C11    2s     (-0.4036) 430 C12    2s     (-0.5304) 460 C13    2s     (-0.1088)
               490 C14    2s     ( 0.4476) 520 C15    2s     ( 0.5557)
         74   -0.7840    2.0000                                                                                                           
                 2 C1     2s     (-0.1468)  11 C1     2pz    ( 0.1586)  33 S2     3s     (-0.4864)  41 S2     3py    (-0.1344)
                66 O3     2s     ( 0.2961)  72 O3     2py    (-0.1149) 116 U4     6py    (-0.1094) 310 O8     2s     ( 0.2962)
               400 C11    2s     ( 0.2045) 430 C12    2s     ( 0.1219) 439 C12    2pz    (-0.1056) 460 C13    2s     (-0.3804)
               520 C15    2s     ( 0.2547) 577 H18    1s     (-0.1231)
         75   -0.7672    2.0000                                                                                                           
               124 U4     6pz    ( 0.7109) 171 U4     5f0    (-0.1129) 340 O9     2s     ( 0.5583) 349 O9     2pz    (-0.1731)
               370 O10    2s     (-0.5436) 379 O10    2pz    (-0.1775)
         76   -0.7428    2.0000                                                                                                           
                 8 C1     2py    (-0.1787) 400 C11    2s     (-0.3997) 430 C12    2s     ( 0.3588) 439 C12    2pz    ( 0.1154)
               466 C13    2py    ( 0.1659) 490 C14    2s     (-0.4055) 520 C15    2s     ( 0.3666) 529 C15    2pz    (-0.1198)
               549 H16    1s     (-0.1589) 563 H17    1s     ( 0.1375) 591 H19    1s     (-0.1512) 605 H20    1s     ( 0.1057)
      
         77   -0.7160    2.0000                                                                                                           
               116 U4     6py    ( 0.1071) 216 O5     2s     ( 0.4544) 219 O5     2px    (-0.1106) 222 O5     2py    ( 0.2264)
               247 S6     3s     (-0.7632) 280 O7     2s     ( 0.4544) 283 O7     2px    ( 0.2289) 286 O7     2py    ( 0.1053)
      
         78   -0.6973    2.0000                                                                                                           
                 2 C1     2s     ( 0.3213)  11 C1     2pz    ( 0.1445)  33 S2     3s     (-0.4245)  66 O3     2s     ( 0.2628)
                72 O3     2py    (-0.1303) 310 O8     2s     ( 0.2626) 313 O8     2px    (-0.1363) 406 C11    2py    (-0.1704)
               430 C12    2s     (-0.2625) 439 C12    2pz    ( 0.1159) 460 C13    2s     ( 0.2914) 490 C14    2s     (-0.2260)
               496 C14    2py    ( 0.1452) 520 C15    2s     (-0.1083) 529 C15    2pz    (-0.1447) 563 H17    1s     (-0.1561)
               577 H18    1s     ( 0.1157) 591 H19    1s     (-0.1244)
         79   -0.6144    2.0000                                                                                                           
                33 S2     3s     (-0.2002)  45 S2     3pz    ( 0.1315)  66 O3     2s     ( 0.1389) 310 O8     2s     ( 0.1391)
               313 O8     2px    (-0.1115) 409 C11    2pz    (-0.2102) 436 C12    2py    ( 0.1935) 466 C13    2py    ( 0.1120)
               469 C13    2pz    ( 0.2368) 499 C14    2pz    ( 0.1642) 526 C15    2py    (-0.1859) 549 H16    1s     ( 0.2117)
               563 H17    1s     ( 0.1610) 577 H18    1s     ( 0.2685) 591 H19    1s     ( 0.1459) 605 H20    1s     ( 0.1788)
      
         80   -0.5512    2.0000                                                                                                           
                 2 C1     2s     (-0.1928)  33 S2     3s     ( 0.1289)  41 S2     3py    (-0.1192)  45 S2     3pz    (-0.2396)
                66 O3     2s     (-0.1333)  69 O3     2px    (-0.1269)  75 O3     2pz    (-0.1479) 310 O8     2s     (-0.1340)
               313 O8     2px    ( 0.1403) 319 O8     2pz    (-0.1486) 400 C11    2s     ( 0.1842) 409 C11    2pz    (-0.1412)
               430 C12    2s     (-0.2156) 436 C12    2py    (-0.1275) 460 C13    2s     ( 0.2160) 466 C13    2py    ( 0.1099)
               490 C14    2s     (-0.2241) 499 C14    2pz    (-0.1799) 520 C15    2s     ( 0.2510) 526 C15    2py    (-0.1102)
               549 H16    1s     ( 0.2193) 563 H17    1s     (-0.1996) 577 H18    1s     ( 0.1886) 591 H19    1s     (-0.2296)
               605 H20    1s     ( 0.1524)
         81   -0.5468    2.0000                                                                                                           
                 8 C1     2py    (-0.2673)  11 C1     2pz    ( 0.1376)  41 S2     3py    (-0.1391)  69 O3     2px    (-0.1186)
               313 O8     2px    ( 0.1148) 406 C11    2py    ( 0.2645) 409 C11    2pz    ( 0.1477) 439 C12    2pz    (-0.3090)
               466 C13    2py    (-0.2528) 469 C13    2pz    ( 0.1433) 496 C14    2py    ( 0.2557) 499 C14    2pz    ( 0.1371)
               529 C15    2pz    (-0.2819)
         82   -0.5164    2.0000                                                                                                           
                 2 C1     2s     (-0.1840)  11 C1     2pz    (-0.2424)  41 S2     3py    ( 0.1686)  45 S2     3pz    ( 0.1938)
                66 O3     2s     ( 0.1119)  69 O3     2px    ( 0.1772)  75 O3     2pz    ( 0.1914) 310 O8     2s     ( 0.1105)
               313 O8     2px    (-0.1572) 319 O8     2pz    ( 0.1906) 406 C11    2py    ( 0.1291) 436 C12    2py    (-0.2050)
               460 C13    2s     ( 0.1298) 469 C13    2pz    (-0.2398) 496 C14    2py    ( 0.1012) 499 C14    2pz    (-0.1322)
               526 C15    2py    (-0.1484) 549 H16    1s     ( 0.1553) 563 H17    1s     (-0.2113) 577 H18    1s     (-0.2129)
               591 H19    1s     (-0.1650) 605 H20    1s     ( 0.1580)
         83   -0.5090    2.0000                                                                                                           
                37 S2     3px    (-0.2716)  66 O3     2s     ( 0.1962)  72 O3     2py    (-0.3095) 216 O5     2s     ( 0.2373)
               222 O5     2py    ( 0.3826) 251 S6     3px    ( 0.3261) 255 S6     3py    (-0.1146) 280 O7     2s     (-0.2391)
               283 O7     2px    (-0.2792) 286 O7     2py    (-0.2649) 310 O8     2s     (-0.1995) 313 O8     2px    ( 0.2156)
               316 O8     2py    ( 0.2236)
         84   -0.5052    2.0000                                                                                                           
                 8 C1     2py    ( 0.1179)  41 S2     3py    (-0.1167)  69 O3     2px    (-0.1459) 219 O5     2px    ( 0.1408)
               255 S6     3py    ( 0.1089) 286 O7     2py    ( 0.1105) 313 O8     2px    ( 0.1070) 406 C11    2py    (-0.1283)
               409 C11    2pz    ( 0.2032) 436 C12    2py    (-0.2517) 466 C13    2py    ( 0.1443) 496 C14    2py    (-0.1589)
               499 C14    2pz    ( 0.2168) 526 C15    2py    (-0.2370) 549 H16    1s     (-0.2163) 563 H17    1s     (-0.2498)
               591 H19    1s     ( 0.2514) 605 H20    1s     ( 0.2347)
         85   -0.4972    2.0000                                                                                                           
                69 O3     2px    (-0.1074) 216 O5     2s     (-0.1686) 219 O5     2px    ( 0.4210) 247 S6     3s     (-0.1587)
               255 S6     3py    ( 0.3567) 280 O7     2s     (-0.1277) 283 O7     2px    (-0.2617) 286 O7     2py    ( 0.3257)
               409 C11    2pz    (-0.1541) 436 C12    2py    ( 0.1021) 499 C14    2pz    (-0.1216) 549 H16    1s     ( 0.1257)
               563 H17    1s     ( 0.1056) 591 H19    1s     (-0.1125)
         86   -0.4968    2.0000                                                                                                           
                37 S2     3px    (-0.3290)  41 S2     3py    ( 0.1196)  66 O3     2s     ( 0.2533)  72 O3     2py    (-0.3554)
               108 U4     6px    (-0.1369) 216 O5     2s     (-0.1997) 222 O5     2py    (-0.3197) 251 S6     3px    (-0.2931)
               280 O7     2s     ( 0.2286) 283 O7     2px    ( 0.2770) 286 O7     2py    ( 0.1725) 310 O8     2s     (-0.2487)
               313 O8     2px    ( 0.2646) 316 O8     2py    ( 0.2554)
         87   -0.4804    2.0000                                                                                                           
                33 S2     3s     (-0.1736)  37 S2     3px    (-0.1035)  41 S2     3py    (-0.3007)  45 S2     3pz    ( 0.2224)
                66 O3     2s     (-0.1120)  69 O3     2px    (-0.3268)  75 O3     2pz    ( 0.2132) 116 U4     6py    (-0.1195)
               219 O5     2px    (-0.1924) 255 S6     3py    (-0.1941) 283 O7     2px    ( 0.1414) 286 O7     2py    (-0.1302)
               310 O8     2s     (-0.1084) 313 O8     2px    ( 0.2418) 316 O8     2py    (-0.2190) 319 O8     2pz    ( 0.2147)
               409 C11    2pz    (-0.1535) 439 C12    2pz    ( 0.1399)
         88   -0.4738    2.0000                                                                                                           
               225 O5     2pz    ( 0.5127) 259 S6     3pz    ( 0.3880) 289 O7     2pz    ( 0.5126)
         89   -0.4362    2.0000                                                                                                           
                45 S2     3pz    ( 0.1372)  69 O3     2px    ( 0.1022)  75 O3     2pz    ( 0.2313) 316 O8     2py    ( 0.1403)
               319 O8     2pz    ( 0.2353) 409 C11    2pz    ( 0.2183) 439 C12    2pz    (-0.2379) 466 C13    2py    ( 0.1637)
               469 C13    2pz    ( 0.2880) 496 C14    2py    (-0.1746) 499 C14    2pz    (-0.2579) 526 C15    2py    ( 0.1866)
               529 C15    2pz    ( 0.2356) 549 H16    1s     (-0.1241) 577 H18    1s     ( 0.3361) 591 H19    1s     (-0.1153)
               605 H20    1s     (-0.1826)
         90   -0.4239    2.0000                                                                                                           
                 5 C1     2px    ( 0.2770)  75 O3     2pz    ( 0.1587) 319 O8     2pz    (-0.1554) 403 C11    2px    ( 0.2735)
               433 C12    2px    ( 0.2721) 463 C13    2px    ( 0.2640) 493 C14    2px    ( 0.2549) 523 C15    2px    ( 0.2458)
      
         91   -0.4114    2.0000                                                                                                           
                 8 C1     2py    (-0.2689)  11 C1     2pz    ( 0.1683) 376 O10    2py    (-0.1057) 406 C11    2py    ( 0.2335)
               409 C11    2pz    (-0.1416) 436 C12    2py    (-0.2204) 439 C12    2pz    ( 0.1679) 466 C13    2py    ( 0.2628)
               469 C13    2pz    (-0.1599) 496 C14    2py    (-0.2467) 499 C14    2pz    ( 0.1445) 526 C15    2py    ( 0.2431)
               529 C15    2pz    (-0.1612) 549 H16    1s     ( 0.2455) 563 H17    1s     (-0.2290) 591 H19    1s     ( 0.2647)
               605 H20    1s     (-0.2405)
         92   -0.3800    2.0000                                                                                                           
                75 O3     2pz    (-0.4110) 149 U4     6d1+   (-0.1710) 225 O5     2pz    ( 0.2613) 289 O7     2pz    (-0.2623)
               319 O8     2pz    ( 0.4064) 343 O9     2px    ( 0.3338) 346 O9     2py    (-0.1172) 373 O10    2px    (-0.3451)
               376 O10    2py    ( 0.1204) 463 C13    2px    ( 0.1003)
         93   -0.3758    2.0000                                                                                                           
                 8 C1     2py    (-0.1244)  11 C1     2pz    (-0.1174)  41 S2     3py    ( 0.2519)  69 O3     2px    (-0.1181)
                72 O3     2py    (-0.2838) 143 U4     6d0    (-0.2357) 222 O5     2py    ( 0.1481) 247 S6     3s     ( 0.1413)
               255 S6     3py    (-0.2099) 286 O7     2py    ( 0.1215) 316 O8     2py    (-0.2948) 340 O9     2s     ( 0.1352)
               349 O9     2pz    (-0.3506) 370 O10    2s     ( 0.1410) 376 O10    2py    (-0.1975) 379 O10    2pz    ( 0.3143)
               406 C11    2py    ( 0.1148) 439 C12    2pz    (-0.1012)
         94   -0.3641    2.0000                                                                                                           
                75 O3     2pz    (-0.4184) 225 O5     2pz    (-0.4842) 289 O7     2pz    ( 0.4843) 319 O8     2pz    ( 0.4178)
               343 O9     2px    (-0.1235) 373 O10    2px    ( 0.1186)
         95   -0.3550    2.0000                                                                                                           
                11 C1     2pz    (-0.1337)  45 S2     3pz    ( 0.1279) 100 U4     6s     (-0.1224) 137 U4     6d1-   (-0.1771)
               143 U4     6d0    ( 0.1541) 316 O8     2py    (-0.1211) 340 O9     2s     (-0.1065) 343 O9     2px    ( 0.1385)
               346 O9     2py    ( 0.3886) 349 O9     2pz    ( 0.2841) 370 O10    2s     (-0.1099) 373 O10    2px    (-0.1713)
               376 O10    2py    (-0.4827) 379 O10    2pz    (-0.3313)
         96   -0.3544    2.0000                                                                                                           
                69 O3     2px    (-0.1695) 216 O5     2s     (-0.1432) 219 O5     2px    ( 0.6337) 222 O5     2py    ( 0.1716)
               251 S6     3px    (-0.1404) 262 S6     3d2-   (-0.1094) 280 O7     2s     ( 0.1435) 283 O7     2px    ( 0.3834)
               286 O7     2py    (-0.5305) 313 O8     2px    (-0.1164) 316 O8     2py    ( 0.1306)
         97   -0.3426    2.0000                                                                                                           
                41 S2     3py    (-0.2470)  69 O3     2px    ( 0.1224)  72 O3     2py    ( 0.2898)  75 O3     2pz    ( 0.1035)
               100 U4     6s     ( 0.1640) 137 U4     6d1-   (-0.1265) 143 U4     6d0    (-0.1159) 316 O8     2py    ( 0.3552)
               319 O8     2pz    ( 0.1397) 340 O9     2s     ( 0.1033) 343 O9     2px    ( 0.1148) 346 O9     2py    ( 0.4480)
               349 O9     2pz    (-0.3060) 376 O10    2py    (-0.1806) 379 O10    2pz    ( 0.3424)
         98   -0.3423    2.0000                                                                                                           
                69 O3     2px    ( 0.3191)  72 O3     2py    ( 0.1076)  75 O3     2pz    ( 0.2103) 149 U4     6d1+   (-0.1540)
               225 O5     2pz    (-0.3461) 289 O7     2pz    ( 0.3345) 313 O8     2px    ( 0.1934) 316 O8     2py    (-0.2205)
               319 O8     2pz    (-0.1863) 343 O9     2px    ( 0.4411) 346 O9     2py    (-0.1096) 373 O10    2px    (-0.3283)
      
         99   -0.3402    2.0000                                                                                                           
                37 S2     3px    (-0.1182)  66 O3     2s     ( 0.1191)  69 O3     2px    ( 0.5454)  72 O3     2py    ( 0.1310)
                75 O3     2pz    (-0.1625) 219 O5     2px    ( 0.1331) 225 O5     2pz    ( 0.1793) 286 O7     2py    (-0.1214)
               289 O7     2pz    (-0.1803) 310 O8     2s     (-0.1197) 313 O8     2px    ( 0.3420) 316 O8     2py    (-0.4423)
               319 O8     2pz    ( 0.1630) 343 O9     2px    (-0.1132) 373 O10    2px    ( 0.3259) 376 O10    2py    (-0.1179)
      
        100   -0.3294    2.0000                                                                                                           
               100 U4     6s     (-0.1380) 167 U4     5f1-   ( 0.1240) 219 O5     2px    ( 0.1680) 222 O5     2py    ( 0.4209)
               247 S6     3s     ( 0.2407) 251 S6     3px    (-0.1568) 255 S6     3py    (-0.4399) 270 S6     3d2+   (-0.1005)
               283 O7     2px    ( 0.1356) 286 O7     2py    ( 0.4335) 346 O9     2py    ( 0.2603) 349 O9     2pz    ( 0.2313)
               376 O10    2py    ( 0.2279) 379 O10    2pz    (-0.2329)
        101   -0.3149    2.0000                                                                                                           
                69 O3     2px    ( 0.1158) 108 U4     6px    ( 0.2507) 175 U4     5f1+   (-0.2394) 316 O8     2py    (-0.1053)
               343 O9     2px    (-0.5809) 346 O9     2py    ( 0.2093) 373 O10    2px    (-0.5682) 376 O10    2py    ( 0.2046)
      
        102   -0.3114    2.0000                                                                                                           
                72 O3     2py    ( 0.1316) 108 U4     6px    ( 0.1107) 116 U4     6py    ( 0.3080) 167 U4     5f1-   (-0.1943)
               222 O5     2py    ( 0.2067) 247 S6     3s     ( 0.1282) 255 S6     3py    (-0.1614) 286 O7     2py    ( 0.2195)
               316 O8     2py    ( 0.1517) 343 O9     2px    (-0.1746) 346 O9     2py    (-0.4835) 373 O10    2px    (-0.1981)
               376 O10    2py    (-0.5504)
        103   -0.2758    2.0000                                                                                                           
                11 C1     2pz    (-0.1114)  33 S2     3s     (-0.1414)  41 S2     3py    (-0.1477)  45 S2     3pz    ( 0.2262)
                75 O3     2pz    (-0.1356) 124 U4     6pz    (-0.4351) 171 U4     5f0    ( 0.5548) 319 O8     2pz    (-0.1364)
               349 O9     2pz    (-0.5015) 379 O10    2pz    (-0.4584)
        104   -0.2552    2.0000                                                                                                           
                 5 C1     2px    (-0.3164)   8 C1     2py    ( 0.1065) 403 C11    2px    (-0.4445) 406 C11    2py    ( 0.1529)
               433 C12    2px    (-0.1203) 463 C13    2px    ( 0.3217) 466 C13    2py    (-0.1099) 493 C14    2px    ( 0.4391)
               496 C14    2py    (-0.1509) 523 C15    2px    ( 0.1249)
        105   -0.2479    2.0000                                                                                                           
                 5 C1     2px    ( 0.3469)   8 C1     2py    (-0.1116)  75 O3     2pz    (-0.1074) 319 O8     2pz    ( 0.1605)
               433 C12    2px    (-0.4409) 436 C12    2py    ( 0.1526) 463 C13    2px    (-0.3033) 466 C13    2py    ( 0.1035)
               493 C14    2px    ( 0.1620) 523 C15    2px    ( 0.4324) 526 C15    2py    (-0.1476)
        106   -0.2456    2.0000                                                                                                           
                 2 C1     2s     (-0.1215)   8 C1     2py    ( 0.1161)  11 C1     2pz    ( 0.2508)  33 S2     3s     ( 0.2953)
                37 S2     3px    ( 0.1020)  41 S2     3py    ( 0.2877)  45 S2     3pz    (-0.4953)  50 S2     3d1-   (-0.1257)
                72 O3     2py    (-0.1372)  75 O3     2pz    ( 0.4672) 124 U4     6pz    (-0.2270) 171 U4     5f0    ( 0.2331)
               316 O8     2py    (-0.1495) 319 O8     2pz    ( 0.4510) 346 O9     2py    ( 0.1004) 349 O9     2pz    (-0.1889)
               376 O10    2py    (-0.1016) 379 O10    2pz    (-0.2300)
        107    0.0000    0.2500                                                                                                           
               163 U4     5f2-   (-0.6346) 179 U4     5f2+   ( 0.7668)
        108    0.0000    0.2500                                                                                                           
               163 U4     5f2-   ( 0.7672) 179 U4     5f2+   ( 0.6348)
        109    0.0000    0.2500                                                                                                           
               159 U4     5f3-   ( 0.5151) 183 U4     5f3+   ( 0.8531)
        110    0.0000    0.2500                                                                                                           
               159 U4     5f3-   ( 0.8487) 183 U4     5f3+   (-0.5125)
        111    0.0000    1.0000                                                                                                           
               225 O5     2pz    (-0.4725) 226 O5     3pz    (-0.1006) 259 S6     3pz    ( 1.0228) 264 S6     3d1-   (-0.1204)
               289 O7     2pz    (-0.4726) 290 O7     3pz    (-0.1006)
        112    0.1233    0.0000                                                                                                           
               400 C11    2s     ( 0.3825) 401 C11    3s     ( 0.2012) 409 C11    2pz    (-0.1397) 429 C12    1s     ( 0.2356)
               430 C12    2s     ( 1.4381) 431 C12    3s     ( 0.7701) 432 C12    4s     ( 0.1139) 433 C12    2px    ( 0.2126)
               434 C12    3px    ( 0.1260) 436 C12    2py    ( 0.6206) 437 C12    3py    ( 0.3680) 459 C13    1s     ( 0.2264)
               460 C13    2s     ( 1.3860) 461 C13    3s     ( 0.7436) 462 C13    4s     ( 0.1108) 463 C13    2px    ( 0.1002)
               466 C13    2py    ( 0.2750) 467 C13    3py    ( 0.1627) 469 C13    2pz    ( 0.5825) 470 C13    3pz    ( 0.3434)
               490 C14    2s     ( 0.5507) 491 C14    3s     ( 0.2916) 496 C14    2py    (-0.1200) 499 C14    2pz    ( 0.1796)
               500 C14    3pz    ( 0.1011) 549 H16    1s     (-0.3237) 550 H16    2s     (-0.1706) 563 H17    1s     (-1.5829)
               564 H17    2s     (-1.2000) 566 H17    2px    ( 0.1303) 568 H17    2py    ( 0.3797) 569 H17    3py    ( 0.2321)
               577 H18    1s     (-1.5321) 578 H18    2s     (-1.1445) 582 H18    2py    ( 0.1911) 583 H18    3py    ( 0.1183)
               584 H18    2pz    ( 0.3385) 585 H18    3pz    ( 0.2057) 591 H19    1s     (-0.5081) 592 H19    2s     (-0.3306)
               598 H19    2pz    ( 0.1395) 606 H20    2s     ( 0.1890)
        113    0.1386    0.0000                                                                                                           
                 2 C1     2s     ( 0.2751)   3 C1     3s     ( 0.1382)  41 S2     3py    (-0.1692)  42 S2     4py    (-0.1647)
               100 U4     6s     (-0.1054) 101 U4     7s     (-0.2813) 117 U4     7py    (-0.1792) 399 C11    1s     (-0.1427)
               400 C11    2s     (-0.8618) 401 C11    3s     (-0.4673) 406 C11    2py    (-0.1569) 409 C11    2pz    ( 0.4461)
               410 C11    3pz    ( 0.2542) 429 C12    1s     (-0.2579) 430 C12    2s     (-1.5352) 431 C12    3s     (-0.8196)
               432 C12    4s     (-0.1132) 433 C12    2px    (-0.1964) 434 C12    3px    (-0.1213) 436 C12    2py    (-0.5719)
               437 C12    3py    (-0.3535) 459 C13    1s     ( 0.2492) 460 C13    2s     ( 1.4795) 461 C13    3s     ( 0.7876)
               462 C13    4s     ( 0.1081) 463 C13    2px    ( 0.1002) 466 C13    2py    ( 0.2778) 467 C13    3py    ( 0.1696)
               469 C13    2pz    ( 0.4824) 470 C13    3pz    ( 0.3011) 489 C14    1s     ( 0.1646) 490 C14    2s     ( 0.9928)
               491 C14    3s     ( 0.5363) 493 C14    2px    (-0.1175) 496 C14    2py    (-0.3541) 497 C14    3py    (-0.2044)
               499 C14    2pz    ( 0.3695) 500 C14    3pz    ( 0.2221) 520 C15    2s     (-0.2060) 521 C15    3s     (-0.1079)
               549 H16    1s     ( 1.0068) 550 H16    2s     ( 0.7267) 554 H16    2py    (-0.1717) 555 H16    3py    (-0.1092)
               556 H16    2pz    ( 0.2091) 557 H16    3pz    ( 0.1232) 563 H17    1s     ( 1.8001) 564 H17    2s     ( 1.5899)
               565 H17    3s     ( 0.1482) 566 H17    2px    (-0.1316) 568 H17    2py    (-0.3859) 569 H17    3py    (-0.2414)
               577 H18    1s     (-1.7088) 578 H18    2s     (-1.5144) 579 H18    3s     (-0.1442) 582 H18    2py    ( 0.1202)
               584 H18    2pz    ( 0.3653) 585 H18    3pz    ( 0.2312) 591 H19    1s     (-1.1500) 592 H19    2s     (-0.8482)
               596 H19    2py    (-0.1292) 598 H19    2pz    ( 0.2735) 599 H19    3pz    ( 0.1692) 605 H20    1s     ( 0.1112)
               606 H20    2s     ( 0.2549)
--
 
      Von Neumann Entropy (Root  1) =  1.00000
 

      Mulliken population analysis for root number:  1
      -----------------------------------------------
 
 
++    Molecular charges:
      ------------------
 
      Mulliken charges per centre and basis function type
      ---------------------------------------------------
 
                C1      S2      O3      U4      O5      S6      O7      O8      O9      O10     C11     C12   
      1s       2.0031  2.0000  1.9990  2.0000  1.9991  2.0000  1.9991  1.9990  1.9996  1.9995  2.0036  2.0032
      2s       1.1868  1.9982  1.8665  2.0000  1.8671  1.9986  1.8671  1.8664  1.8918  1.8981  1.5282  1.5304
      2px      0.9471  2.0014  1.6177  2.0000  1.6135  2.0017  1.2891  1.2788  1.6539  1.6658  0.9127  0.9535
      2pz      0.8827  2.0003  1.8327  2.0000  1.7485  2.0001  1.7484  1.8324  1.4622  1.4764  0.8857  0.7798
      2py      0.8352  2.0007  1.3629  2.0000  1.4052  2.0003  1.7297  1.7018  1.6706  1.6839  0.8359  0.9130
      3s      -0.0308  1.5651  0.0029  2.0000  0.0001  1.6852  0.0001  0.0029  0.0085  0.0082 -0.0162 -0.0240
      3px     -0.0040  0.7078 -0.0028  2.0000 -0.0010  0.7068  0.0002  0.0014  0.0058  0.0063  0.0005  0.0020
      3pz     -0.0249  1.2157 -0.0200  2.0000 -0.0218  1.2963 -0.0218 -0.0199 -0.0155 -0.0171 -0.0384 -0.0671
      3py     -0.0457  0.9844 -0.0033  2.0000 -0.0090  1.0565 -0.0102 -0.0074  0.0050 -0.0008 -0.0356 -0.0325
      4s       0.0061  0.0082  0.0060  2.0001  0.0054  0.0047  0.0054  0.0060  0.0044  0.0042  0.0014  0.0011
      3d2+     0.0122  0.1839  0.0078  2.0000  0.0078  0.1723  0.0103  0.0104  0.0003  0.0004  0.0131  0.0131
      3d1+     0.0154  0.1288  0.0041  2.0000  0.0044  0.1116  0.0095  0.0079  0.0094  0.0089  0.0133  0.0214
      3d0      0.0157  0.0968  0.0032  2.0000  0.0031  0.0460  0.0031  0.0032  0.0091  0.0090  0.0097  0.0206
      3d1-     0.0296  0.1608  0.0049  2.0000  0.0060  0.0766  0.0010  0.0011  0.0093  0.0089  0.0232  0.0045
      3d2-     0.0161  0.1822  0.0106  2.0000  0.0105  0.1688  0.0080  0.0081  0.0002  0.0003  0.0167  0.0109
      4px     -0.0010  0.0263  0.0012  2.0000  0.0014  0.0239  0.0016  0.0021  0.0007  0.0003 -0.0012 -0.0010
      4pz      0.0002 -0.0061 -0.0006  2.0000 -0.0012 -0.0266 -0.0012 -0.0006  0.0008  0.0013 -0.0013 -0.0026
      4py     -0.0009  0.0060  0.0017  2.0000  0.0007 -0.0001  0.0004  0.0008  0.0004 -0.0016 -0.0019 -0.0006
      5s       0.0000  0.0060  0.0000  2.0008  0.0000  0.0044  0.0000  0.0000  0.0000  0.0000  0.0000  0.0000
      4d2+    -0.0025  0.0009  0.0012  2.0000  0.0015 -0.0006  0.0020  0.0019 -0.0000  0.0000 -0.0015 -0.0004
      4d1+     0.0010  0.0014  0.0008  2.0000  0.0009 -0.0006  0.0017  0.0013  0.0016  0.0016 -0.0007 -0.0001
[...]
      *                             General data section                             *
      *                                                                              *
      ********************************************************************************
 
   Specific data for JOBIPH file 
 JOB001                                                                         
                                                  
   -------------------------------------
 
   Header from SEWARD:
                                                                               
        Integrals generated by seward 4.2.0  , Tue Dec 17 19:48:10 2019        
 
   CASSCF title (first line only):
       (No title given)                                                        
 
   STATE IRREP:                             1
   SPIN MULTIPLICITY:                       3
   ACTIVE ELECTRONS:                        2
   MAX RAS1 HOLES:                          0
   MAX RAS3 ELECTRONS:                      0
   NR OF CONFIG:                           10
 
   Specific data for JOBIPH file 
 JOB002                                                                         
                                                  
   -------------------------------------
 
   Header from SEWARD:
                                                                               
        Integrals generated by seward 4.2.0  , Tue Dec 17 19:48:10 2019        
 
   CASSCF title (first line only):
       (No title given)                                                        
 
   STATE IRREP:                             1
   SPIN MULTIPLICITY:                       1
   ACTIVE ELECTRONS:                        2
   MAX RAS1 HOLES:                          0
   MAX RAS3 ELECTRONS:                      0
   NR OF CONFIG:                           15
 
   The following data are common to all the states:
   ------------------------------------------------
   (note: frozen counts as inactive, deleted as secondary)
 
      NR of irreps: 1
 
                 Total     No./Irrep 
      Irrep                  1
                             a
 
      INACTIVE     106     106
      ACTIVE         5       5
      SECONDARY    507     507
      BASIS        618     618
 
      RAS1           0       0
      RAS2           5       5
      RAS3           0       0
 
        MATRIX ELEMENTS WILL BE COMPUTED FOR THE FOLLOWING ONE-ELECTRON OPERATOR
 S, UNLESS ZERO BY SYMMETRY.
   (Herm=Hermitian, Anti=Antihermitian, Sing=Singlet operator, Trip=Triplet oper
 ator)
     MLTPL  1   1 (HERMSING)     MLTPL  1   2 (HERMSING)     MLTPL  1   3 (HERMSING)
     MLTPL  2   1 (HERMSING)     MLTPL  2   2 (HERMSING)     MLTPL  2   3 (HERMSING)
     MLTPL  2   4 (HERMSING)     MLTPL  2   5 (HERMSING)     MLTPL  2   6 (HERMSING)
     VELOCITY   1 (ANTISING)     VELOCITY   2 (ANTISING)     VELOCITY   3 (ANTISING)
     ANGMOM     1 (ANTISING)     ANGMOM     2 (ANTISING)     ANGMOM     3 (ANTISING)
     AMFI       1 (ANTITRIP)     AMFI       2 (ANTITRIP)     AMFI       3 (ANTITRIP)
 
       EIGENSTATES OF A SPIN-FREE HAMILTONIAN WILL BE COMPUTED BASED ON:
 
  a Hamiltonian matrix assumed to be diagonal with energies read from the wavefu
 nction file(s).
  SO coupling elements will be added.
       EIGENSTATES OF SPIN-ORBIT HAMILTONIAN WILL BE COMPUTED
        MATRIX ELEMENTS OVER SPIN EIGENSTATES FOR:
     MLTPL  1   1 (HERMSING)     MLTPL  1   2 (HERMSING)     MLTPL  1   3 (HERMSING)
     MLTPL  2   1 (HERMSING)     MLTPL  2   2 (HERMSING)     MLTPL  2   3 (HERMSING)
     MLTPL  2   4 (HERMSING)     MLTPL  2   5 (HERMSING)     MLTPL  2   6 (HERMSING)
     VELOCITY   1 (ANTISING)     VELOCITY   2 (ANTISING)     VELOCITY   3 (ANTISING)
     ANGMOM     1 (ANTISING)     ANGMOM     2 (ANTISING)     ANGMOM     3 (ANTISING)
 
  Nr of states:                     8
 
   State:        1   2   3   4   5   6   7   8
  JobIph:        1   1   1   1   2   2   2   2
 Root nr:        1   2   3   4   1   2   3   4
 
  HAMILTONIAN MATRIX FOR THE ORIGINAL STATES:
 
  Diagonal, with energies
 -29430.61529231 -29430.61341335 -29430.61227241 -29430.60525267 -29430.61533165
 -29430.61329606 -29430.61202526 -29430.60503267
 
      OVERLAP MATRIX FOR THE ORIGINAL STATES:
 
  Diagonal, with elements
      1.00000000      1.00000000      1.00000000      1.00000000      1.00000000
      1.00000000      1.00000000      1.00000000
 
::    RASSI State    1     Total energy: -29430.61529231
::    RASSI State    2     Total energy: -29430.61341335
::    RASSI State    3     Total energy: -29430.61227241
::    RASSI State    4     Total energy: -29430.60525267
::    RASSI State    5     Total energy: -29430.61533165
::    RASSI State    6     Total energy: -29430.61329606
::    RASSI State    7     Total energy: -29430.61202526
::    RASSI State    8     Total energy: -29430.60503267
 
 
 
      ****************************************************************************************************
      *                                                                                                  *
      *                                         Spin-free section                                        *
      *                                                                                                  *
      *                 Note: index according to input order, order according to energy.                 *
      *                                                                                                  *
      ****************************************************************************************************
 
 
 
  SPIN-FREE ENERGIES:
  (Shifted by EVAC (a.u.) =     -29430.6153316455)
 
 SF State       Relative EVAC(au)   Rel lowest level(eV)    D:o, cm**(-1)
 
     5             0.0000000000        0.0000000000              0.0000
     1             0.0000393309        0.0010702488              8.6321
     2             0.0019182917        0.0521993750            421.0164
     6             0.0020355856        0.0553911068            446.7594
     3             0.0030592404        0.0832461716            671.4257
     7             0.0033063850        0.0899713174            725.6676
     4             0.0100789717        0.2742627888           2212.0786
     8             0.0102989730        0.2802493300           2260.3633
 
++ Dipole transition strengths (spin-free states):
   -----------------------------------------------
     for osc. strength at least  1.00000000E-05
 
  ( Max oscillator strength is only   6.116624985144768E-008 )
--
 
++ Velocity transition strengths (spin-free states):
   -------------------------------------------------
     for osc. strength at least  1.00000000E-05
 
      From   To        Osc. strength     Einstein coefficients Ax, Ay, Az (sec-1)    Total A (sec-1)
     -----------------------------------------------------------------------------------------------
         2    4       2.40308862E-05  4.64196307E+01  4.97703846E+00  2.33055645E-02  5.14199747E+01
     -----------------------------------------------------------------------------------------------
--
 
 --------------------------------------------------
 
 A comparison between the dipole oscillator strengths in 
 length and velocity gauge will be performed
 
 All dipole oscillator differences above the tolerance of 
  0.100000000000000       will be printed 
 
 Due to basis set deficiency these oscillator may be problematic 
 
 The tolerance is defined as ABS(1-O_l/O_v) 
 O_l : dipole oscillator strength in length gauge
 O_p : dipole oscillator strength in velocity gauge
 
 --------------------------------------------------
 
  Problematic transitions have been found
 
      From   To      Difference (%)  Osc. st. (len.) Osc. st. (vel.)
      --------------------------------------------------------------
 
         2    4      --------------- below threshold  2.40308862E-05
      --------------------------------------------------------------
 
 Number of problematic transitions =                      1
 
 Electric-Dipole - Electric-Octupole not included
 Electric-Dipole - Magnetic-Quadrupole not included
 
 
 
      ****************************************************************************************************
      *                                                                                                  *
      *                                         Spin-orbit section                                       *
      *                                                                                                  *
      ****************************************************************************************************
 
 
 Complex SO-Hamiltonian matrix elements over
 spin components of spin-free eigenstates (SFS):
 (In cm-1. Print threshold:   1000.000 cm-1)
 ----------------------------------------------------------------------
 
  I1  S1  MS1    I2  S2  MS2    Real part    Imag part      Absolute
     7  1.0 -1.0    1  1.0 -1.0         0.000     -1992.373      1992.373
     9  1.0  1.0    3  1.0  1.0         0.000      1992.373      1992.373
    10  1.0 -1.0    4  1.0 -1.0         0.000     -3005.986      3005.986
    12  1.0  1.0    6  1.0  1.0         0.000      3005.986      3005.986
    13  0.0  0.0    8  1.0  0.0         0.000     -1992.741      1992.741
    14  0.0  0.0   11  1.0  0.0         0.000     -3008.148      3008.148
    15  0.0  0.0    2  1.0  0.0         0.000      1994.135      1994.135
    16  0.0  0.0    5  1.0  0.0         0.000      3006.062      3006.062
 ----------------------------------------------------------------------
 
       Total energies including SO-coupling:
::    SO-RASSI State    1     Total energy: -29430.62894489
::    SO-RASSI State    2     Total energy: -29430.62893350
::    SO-RASSI State    3     Total energy: -29430.62888549
::    SO-RASSI State    4     Total energy: -29430.62887576
::    SO-RASSI State    5     Total energy: -29430.62276809
::    SO-RASSI State    6     Total energy: -29430.62274453
::    SO-RASSI State    7     Total energy: -29430.62274398
::    SO-RASSI State    8     Total energy: -29430.62262383
::    SO-RASSI State    9     Total energy: -29430.59998225
::    SO-RASSI State   10     Total energy: -29430.59997044
::    SO-RASSI State   11     Total energy: -29430.59994266
::    SO-RASSI State   12     Total energy: -29430.59986008
::    SO-RASSI State   13     Total energy: -29430.59457504
::    SO-RASSI State   14     Total energy: -29430.59456419
::    SO-RASSI State   15     Total energy: -29430.59454314
::    SO-RASSI State   16     Total energy: -29430.59442000
 
 
   Eigenvalues of complex Hamiltonian:
   -----------------------------------
 
  (Shifted by EVAC (a.u.) =    -29430.615331646)
 
          Relative EVac(au)    Rel lowest level(eV)    D:o, cm**(-1)
 
     1       -0.0136132457          0.0000000000              0.0000
     2       -0.0136018579          0.0003098783              2.4993
     3       -0.0135538443          0.0016163929             13.0371
     4       -0.0135441175          0.0018810735             15.1719
     5       -0.0074364416          0.1680794004           1355.6518
     6       -0.0074128883          0.1687203181           1360.8211
     7       -0.0074123364          0.1687353362           1360.9423
     8       -0.0072921812          0.1720049262           1387.3133
     9        0.0153493906          0.7881134763           6356.5639
    10        0.0153612100          0.7884350980           6359.1580
    11        0.0153889809          0.7891907834           6365.2530
    12        0.0154715696          0.7914381362           6383.3791
    13        0.0207566054          0.9352512858           7543.3104
    14        0.0207674510          0.9355464094           7545.6907
    15        0.0207885087          0.9361194196           7550.3124
    16        0.0209116442          0.9394701065           7577.3375
 
 
 Weights of the five most important spin-orbit-free states for each spin-orbit s
 tate.
 
 SO State  Total energy (au)           Spin-free states, spin, and weights
 -------------------------------------------------------------------------------
 ------------------------
    1        -0.013613       2 1.0  0.4876    4 1.0  0.3035    5 0.0  0.1796    3 1.0  0.0289    1 1.0  0.0004
    2        -0.013602       2 1.0  0.4861    4 1.0  0.3035    1 1.0  0.1806    7 0.0  0.0274    6 0.0  0.0017
    3        -0.013554       6 0.0  0.4844    4 1.0  0.3045    1 1.0  0.1808    3 1.0  0.0288    2 1.0  0.0015
    4        -0.013544       2 1.0  0.4893    8 0.0  0.3008    1 1.0  0.1808    3 1.0  0.0288    6 0.0  0.0001
    5        -0.007436       3 1.0  0.5098    5 0.0  0.4532    2 1.0  0.0274    4 1.0  0.0086    1 1.0  0.0006
    6        -0.007413       3 1.0  0.5113    1 1.0  0.4524    2 1.0  0.0276    8 0.0  0.0085    5 0.0  0.0001
    7        -0.007412       3 1.0  0.5108    1 1.0  0.4523    6 0.0  0.0267    4 1.0  0.0087    2 1.0  0.0008
    8        -0.007292       7 0.0  0.5063    1 1.0  0.4554    2 1.0  0.0278    4 1.0  0.0090    3 1.0  0.0009
    9         0.015349       3 1.0  0.4288    5 0.0  0.3285    2 1.0  0.2419    4 1.0  0.0003    1 1.0  0.0002
   10         0.015361       3 1.0  0.4280    1 1.0  0.3289    2 1.0  0.2427    8 0.0  0.0003    4 1.0  0.0000
   11         0.015389       3 1.0  0.4218    1 1.0  0.3299    6 0.0  0.2371    2 1.0  0.0056    7 0.0  0.0051
   12         0.015472       7 0.0  0.4268    1 1.0  0.3242    2 1.0  0.2381    3 1.0  0.0071    6 0.0  0.0034
   13         0.020757       4 1.0  0.6875    2 1.0  0.2431    5 0.0  0.0375    3 1.0  0.0318    1 1.0  0.0000
   14         0.020767       4 1.0  0.6872    2 1.0  0.2385    1 1.0  0.0388    7 0.0  0.0332    6 0.0  0.0022
   15         0.020789       4 1.0  0.6862    6 0.0  0.2443    1 1.0  0.0368    3 1.0  0.0309    2 1.0  0.0017
   16         0.020912       8 0.0  0.6902    2 1.0  0.2402    1 1.0  0.0377    3 1.0  0.0318    4 1.0  0.0000
 -------------------------------------------------------------------------------
 ------------------------
 
 
      ****************************************************************************************************
      *                                                                                                  *
      *                                    Special properties section                                    *
      *                                                                                                  *
      ****************************************************************************************************
 
 
++ Velocity transition strengths (SO states):
   ------------------------------------------
    for osc. strength at least   1.000000000000000E-005
 
         To  From     Osc. strength   Einstein coefficients Ax, Ay, Az (sec-1)  
      Total A (sec-1)  
         -----------------------------------------------------------------------
 --------------------
         1    2       1.00140780E-02  3.74347247E-02  4.29060919E-03  1.33082291E-07  4.17254669E-02
         1    3       1.30278883E-05  7.30447978E-04  5.41094151E-04  2.05442365E-04  1.47698449E-03
         2    4       1.44905267E-05  4.48533845E-04  4.34000286E-04  6.69683305E-04  1.55221744E-03
         3    4       6.87735469E-03  1.88197978E-02  2.08632830E-03  1.45373614E-08  2.09061406E-02
         5    7       1.27235465E-04  1.36737211E-05  1.98037194E-04  2.16370027E-03  2.37541119E-03
         5    8       1.79904945E-05  8.66071384E-03  3.36257098E-03  6.19405806E-06  1.20294789E-02
         6    7       2.79057606E-02  2.73020426E-04  7.78206664E-08  8.38129515E-09  2.73106628E-04
         6    8       2.23695618E-05  4.48079250E-05  1.05093516E-03  9.37632983E-03  1.04720729E-02
         9   10       1.07243778E-05  2.88059947E-05  7.46823246E-06  1.18618775E-05  4.81361046E-05
         9   11       6.02208349E-05  2.41234187E-05  3.30108434E-04  2.67849913E-03  3.03273098E-03
        10   11       2.44359757E-04  5.99567962E-03  2.40681245E-05  3.53308834E-05  6.05507863E-03
        10   12       2.57542917E-05  1.48609044E-05  1.24121652E-03  8.82203874E-03  1.00781162E-02
        13   14       1.20227650E-02  4.12258761E-02  4.19426914E-03  1.79902581E-05  4.54381355E-02
        13   15       3.10411127E-04  1.89072360E-03  2.56241513E-04  8.00426515E-03  1.01512303E-02
        14   16       5.59386259E-05  6.41355421E-03  1.57828082E-03  2.93771044E-02  3.73689394E-02
        15   16       7.22657682E-04  3.20705579E-01  3.11757411E-02  1.71932582E-04  3.52053253E-01
         -----------------------------------------------------------------------
 --------------------
--
 
 
 --------------------------------------------------
 
 A comparison between the dipole oscillator strengths in 
 length and velocity gauge will be performed
 
 All dipole oscillator differences above the tolerance of 
  0.100000000000000       will be printed 
 
 Due to basis set deficiency these oscillator may be problematic 
 
 The tolerance is defined as ABS(1-O_l/O_v) 
 O_l : dipole oscillator strength in length gauge
 O_p : dipole oscillator strength in velocity gauge
 
 --------------------------------------------------
 
  Problematic transitions have been found
      From   To      Difference (%)  Osc. st. (len.) Osc. st. (vel.)
      --------------------------------------------------------------
 
         1    2      --------------- below threshold  1.00140780E-02
         1    3      --------------- below threshold  1.30278883E-05
         2    4      --------------- below threshold  1.44905267E-05
         3    4      --------------- below threshold  6.87735469E-03
         5    7      --------------- below threshold  1.27235465E-04
         5    8      --------------- below threshold  1.79904945E-05
         6    7      --------------- below threshold  2.79057606E-02
         6    8      --------------- below threshold  2.23695618E-05
         9   10      --------------- below threshold  1.07243778E-05
         9   11      --------------- below threshold  6.02208349E-05
        10   11      --------------- below threshold  2.44359757E-04
        10   12      --------------- below threshold  2.57542917E-05
        13   14      --------------- below threshold  1.20227650E-02
        13   15      --------------- below threshold  3.10411127E-04
        14   16      --------------- below threshold  5.59386259E-05
        15   16      --------------- below threshold  7.22657682E-04
      --------------------------------------------------------------
 
 Number of problematic transitions =                     16
 
 Electric-Dipole - Electric-Octupole not included
 Electric-Dipole - Magnetic-Quadrupole not included
 ###############################################################################
 ###############################################################################
 ###                                                                         ###
 ###                                                                         ###
 ###    RunFile label nBas                                                   ###
 ###    was used     1336 times                                              ###
 ###                                                                         ###
 ###                                                                         ###
 ###############################################################################
 ###############################################################################
--- Stop Module: rassi at Wed Dec 18 11:18:45 2019 /rc=_RC_ALL_IS_WELL_ ---
*** files: UO2_C6H5SO2_SO2-m1-triplet.rassi-SO-casscf-xmscaspt2.VTZP.rassi.h5 xmldump
    saved to directory /home/vallet/John-sulfinate/U-complexes/UO2_C6H5SO2_SO2-m1/optg-freq-pbe0/SO-XMS
--- Module rassi spent 7 seconds ---

    Timing: Wall=56004.33 User=159302.48 System=8341.95
