
 Primary working directories    : /state/partition1/vallet/537297.phlam-s-sakura
 Secondary working directories  : /state/partition1/vallet/537297.phlam-s-sakura
 Wavefunction directory         : /home/vallet/wfu/
 Main file repository           : /state/partition1/vallet/537297.phlam-s-sakura/

 SHA1      : 5e3d8ac6839c721e2824de82269b4736200146bd
 NAME      : 2015.1.37
 ARCHNAME  : linux/x86_64
 FC        : /opt/intel/composer_xe_2015.1.133/bin/intel64/ifort
 BLASLIB   : -Wl,-_start-group /opt/intel/mkl/lib/intel64/libmkl_intel_ilp64.a /opt/intel/mkl/lib/intel64/libmkl_intel_thread.a /opt/intel/mkl/lib/intel64/libmkl_core.a -Wl,-_end-group
 id        : lill

 Nodes      nprocs
 u-5-4.local    8

 Using customized tuning parameters: mindgm=1; mindgv=20; mindgc=4; mindgr=1; noblas=0; minvec=7
 default implementation of scratch files=sf  

  memory,1000,m;
  file, 1, cis-CH3OSO-m1.CCSD-T-CBS.int, new;
  file, 2, cis-CH3OSO-m1.CCSD-T-CBS.wfu, new;
 
 geometry={
 7
 Energy = -588.2852748599
 C     0.0534563    0.8045795    0.0999753
 H    -0.2332563    0.3971238    1.0777226
 H     1.1463118    0.9382777    0.0927615
 H    -0.4293182    1.7823213   -0.0289702
 O    -0.3671587   -0.0299919   -0.9425128
 S     0.2481104   -1.6463957   -0.7784432
 O    -0.4181454   -2.2459146    0.4794668
 }
 
 basis={
   default,aug-cc-pVTZ;
 }
 {cfit,basis_coul=mycoul,basis_exch=myexch}
 
 charge=-1;
 spin=0;
 
 hf;
 uccsd(t);
 
 ehf(1) = ENERGR(1);
 ecor_ccsdt(1) = ENERGY(1)-ENERGR(1);
 ecor_mp2(1) = EMP2(1)-ENERGR(1);
 
 basis={
   default,aug-cc-pVQZ;
 }
 {cfit,basis_coul=mycoul,basis_exch=myexch}
 
 hf;
 uccsd(t);
 ehf(2) = ENERGR(1);
 ecor_ccsdt(2) = ENERGY(1)-ENERGR(1);
 ecor_mp2(2) = EMP2(1)-ENERGR(1);
 
 extrapolate, basis=avtz:avqz, eref=ehf, ecorr=ecor_ccsdt, method_r=km, method_c=LH4;
 extrapolate, basis=avtz:avqz, eref=ehf, ecorr=ecor_mp2, method_r=km, method_c=LH4;

 Variables initialized (889), CPU time= 0.00 sec
 Commands  initialized (702), CPU time= 0.01 sec, 572 directives.
 Default parameters read. Elapsed time= 0.07 sec

 Checking input...
 Passed
1


                                         ***  PROGRAM SYSTEM MOLPRO  ***
                                       Copyright, TTI GmbH Stuttgart, 2015
                                    Version 2015.1 linked Aug 10 2018 15:00:15


 **********************************************************************************************************************************
 LABEL *                                                                                 
  64 bit mpp version                                                                     DATE: 29-Jan-19          TIME: 10:55:25  
 **********************************************************************************************************************************

 SHA1:             5e3d8ac6839c721e2824de82269b4736200146bd
 **********************************************************************************************************************************

 Variable memory set to 1000000000 words,  buffer space   230000 words



 Permanent file  1  cis-ch3oso-m1.ccsd-t-cbs.int     assigned.  Implementation=df  
 Permanent file  2  cis-ch3oso-m1.ccsd-t-cbs.wfu     assigned.  Implementation=df  
 


 **********************************************************************************************************************************
 DATASETS  * FILE   NREC   LENGTH (MB)   RECORD NAMES
              1       1        0.03       500   
                                          VAR  

              2       1        0.03       500   
                                          VAR  

 PROGRAMS   *        TOTAL      FILE
 CPU TIMES  *         0.30      0.01
 REAL TIME  *         2.98 SEC
 DISK USED  *         0.26 MB      
 **********************************************************************************************************************************

Geometry recognized as XYZ

 SETTING BASIS          =    AUG-CC-PVTZ
 SETTING CHARGE         =        -1.00000000                                  
 SETTING SPIN           =     0.00000000D+00                                  


 Recomputing integrals since basis changed


 Using spherical harmonics

 Library entry C      S aug-cc-pVTZ          selected for orbital group  1
 Library entry C      P aug-cc-pVTZ          selected for orbital group  1
 Library entry C      D aug-cc-pVTZ          selected for orbital group  1
 Library entry C      F aug-cc-pVTZ          selected for orbital group  1
 Library entry H      S aug-cc-pVTZ          selected for orbital group  2
 Library entry H      P aug-cc-pVTZ          selected for orbital group  2
 Library entry H      D aug-cc-pVTZ          selected for orbital group  2
 Library entry O      S aug-cc-pVTZ          selected for orbital group  3
 Library entry O      P aug-cc-pVTZ          selected for orbital group  3
 Library entry O      D aug-cc-pVTZ          selected for orbital group  3
 Library entry O      F aug-cc-pVTZ          selected for orbital group  3
 Library entry S      S aug-cc-pVTZ          selected for orbital group  4
 Library entry S      P aug-cc-pVTZ          selected for orbital group  4
 Library entry S      D aug-cc-pVTZ          selected for orbital group  4
 Library entry S      F aug-cc-pVTZ          selected for orbital group  4


 PROGRAM * SEWARD (Integral evaluation for generally contracted gaussian basis sets)     Author: Roland Lindh, 1990

 Geometry written to block  1 of record 700


 Point group  C1  



 ATOMIC COORDINATES

 NR  ATOM    CHARGE       X              Y              Z

   1  C       6.00    0.101017767    1.520434900    0.188925936
   2  H       1.00   -0.440790524    0.750455220    2.036600552
   3  H       1.00    2.166215355    1.773087882    0.175293830
   4  H       1.00   -0.811293818    3.368099123   -0.054745744
   5  O       8.00   -0.693829387   -0.056676477   -1.781091061
   6  S      16.00    0.468860705   -3.111236966   -1.471044452
   7  O       8.00   -0.790180286   -4.244163493    0.906060938

 Bond lengths in Bohr (Angstrom)

 1-2  2.073722841  1-3  2.080639431  1-4  2.074982264  1-5  2.645756841  5-6  3.283034713
     ( 1.097366869)     ( 1.101026971)     ( 1.098033327)     ( 1.400074226)     ( 1.737307153)

 6-7  2.918790291
     ( 1.544557306)

 Bond angles

  1-5-6  112.20325499   2-1-3  108.07486047   2-1-4  108.68614046   2-1-5  111.32185735

  3-1-4  109.11783056   3-1-5  111.45059372   4-1-5  108.13518953   5-6-7  106.57582883

 NUCLEAR CHARGE:                   41
 NUMBER OF PRIMITIVE AOS:         366
 NUMBER OF SYMMETRY AOS:          324
 NUMBER OF CONTRACTIONS:          257   ( 257A   )
 NUMBER OF CORE ORBITALS:           8   (   8A   )
 NUMBER OF VALENCE ORBITALS:       19   (  19A   )


 NUCLEAR REPULSION ENERGY  169.32606947


 Eigenvalues of metric

         1 0.580E-04 0.650E-04 0.828E-04 0.195E-03 0.329E-03 0.492E-03 0.603E-03 0.716E-03


 Contracted 2-electron integrals neglected if value below      1.0D-11
 AO integral compression algorithm  1   Integral accuracy      1.0D-11

     2456.814 MB (compressed) written to integral file ( 48.5%)

     Node minimum: 273.416 MB, node maximum: 333.971 MB


 NUMBER OF SORTED TWO-ELECTRON INTEGRALS:   68707520.     BUFFER LENGTH:  32768
 NUMBER OF SEGMENTS:   5  SEGMENT LENGTH:   15996384      RECORD LENGTH: 524288

 Memory used in sort:      16.55 MW

 SORT1 READ   633391679. AND WROTE    66177847. INTEGRALS IN    192 RECORDS. CPU TIME:     9.40 SEC, REAL TIME:    10.19 SEC
 SORT2 READ   531244846. AND WROTE   549577281. INTEGRALS IN   8704 RECORDS. CPU TIME:     1.15 SEC, REAL TIME:     1.83 SEC

 Node minimum:    68682656.  Node maximum:    68711665. integrals

 OPERATOR DM      FOR CENTER  0  COORDINATES:    0.000000    0.000000    0.000000


 **********************************************************************************************************************************
 DATASETS  * FILE   NREC   LENGTH (MB)   RECORD NAMES
              1      18       22.44       500      610      700      900      950      970     1000      129      960     1100   
                                          VAR    BASINP    GEOM    SYMINP    ZMAT    AOBASIS   BASIS     P2S    ABASIS      S 
                                         1400     1410     1200     1210     1080     1600     1650     1700   
                                           T        V       H0       H01     AOSYM     SMH    MOLCAS    OPER   

              2       5        2.34       500      610      700     1000      520   
                                          VAR    BASINP    GEOM     BASIS   MCVARS    

 PROGRAMS   *        TOTAL       INT      FILE
 CPU TIMES  *        17.98     17.68      0.01
 REAL TIME  *        33.65 SEC
 DISK USED  *         8.82 GB      
 GA USED    *         0.00 MB       (max)       0.00 MB       (current)
 **********************************************************************************************************************************


 PROGRAM * RHF-SCF (CLOSED SHELL)       Authors: W. Meyer, H.-J. Werner


 NUMBER OF ELECTRONS:      21+   21-    SPACE SYMMETRY=1    SPIN SYMMETRY: Singlet 
 CONVERGENCE THRESHOLDS:    1.00E-05 (Density)    1.00E-07 (Energy)
 MAX. NUMBER OF ITERATIONS:       60
 INTERPOLATION TYPE:            DIIS
 INTERPOLATION STEPS:              2 (START)      1 (STEP)
 LEVEL SHIFTS:                  0.00 (CLOSED)  0.00 (OPEN) 



 Orbital guess generated from atomic densities. Full valence occupancy:   27

 Molecular orbital dump at record        2100.2

 Initial occupancy:  21

 ITERATION    DDIFF          GRAD             ENERGY        2-EL.EN.            DIPOLE MOMENTS         DIIS   ORB.
    1      0.000D+00      0.000D+00      -586.80461394    804.064577    1.01624    3.83790    0.10956    0    start
    2      0.000D+00      0.466D-02      -586.85842551    797.586299    0.19201    3.03796    0.93960    1    diag
    3      0.612D-02      0.375D-02      -586.90774088    799.677453    0.52231    3.25784    0.48483    2    diag
    4      0.268D-02      0.482D-03      -586.90924981    799.628801    0.50515    3.20431    0.57150    3    diag
    5      0.542D-03      0.203D-03      -586.90944844    799.474708    0.48981    3.21617    0.55197    4    diag
    6      0.215D-03      0.663D-04      -586.90947653    799.495883    0.49130    3.20948    0.55881    5    diag
    7      0.899D-04      0.129D-04      -586.90947876    799.486601    0.49008    3.20934    0.56011    6    diag
    8      0.423D-04      0.371D-05      -586.90947898    799.489188    0.48978    3.20887    0.55992    7    diag
    9      0.133D-04      0.147D-05      -586.90947902    799.488086    0.48965    3.20881    0.55991    8    diag
   10      0.467D-05      0.481D-06      -586.90947902    799.488348    0.48961    3.20877    0.55989    0    orth

 Final occupancy:  21

 !RHF STATE 1.1 Energy               -586.909479024308
 Nuclear energy                       169.32606947
 One-electron energy                -1155.97972226
 Two-electron energy                  399.74417376
 Virial quotient                       -1.00062886
 !RHF STATE 1.1 Dipole moment           0.48960935     3.20876708     0.55988871
 Dipole moment /Debye                   1.24438133     8.15533822     1.42300196

 Orbital energies:

         1.1          2.1          3.1          4.1          5.1          6.1          7.1          8.1          9.1         10.1
    -91.808661   -20.380497   -20.287129   -11.107609    -8.796129    -6.478012    -6.476022    -6.474854    -1.177578    -1.066868

        11.1         12.1         13.1         14.1         15.1         16.1         17.1         18.1         19.1         20.1
     -0.760258    -0.623017    -0.458919    -0.454264    -0.427916    -0.324840    -0.317659    -0.295806    -0.248610    -0.201674

        21.1         22.1         23.1
     -0.079363     0.124643     0.140076

 HOMO     21.1    -0.079363 =      -2.1596eV
 LUMO     22.1     0.124643 =       3.3917eV
 LUMO-HOMO         0.204006 =       5.5513eV


 **********************************************************************************************************************************
 DATASETS  * FILE   NREC   LENGTH (MB)   RECORD NAMES
              1      18       22.44       500      610      700      900      950      970     1000      129      960     1100   
                                          VAR    BASINP    GEOM    SYMINP    ZMAT    AOBASIS   BASIS     P2S    ABASIS      S 
                                         1400     1410     1200     1210     1080     1600     1650     1700   
                                           T        V       H0       H01     AOSYM     SMH    MOLCAS    OPER   

              2       6        6.19       500      610      700     1000      520     2100   
                                          VAR    BASINP    GEOM     BASIS   MCVARS     RHF  

 PROGRAMS   *        TOTAL        HF       INT      FILE
 CPU TIMES  *        25.79      7.81     17.68      0.01
 REAL TIME  *        42.14 SEC
 DISK USED  *         9.08 GB      
 SF USED    *         0.27 MB      
 GA USED    *         0.00 MB       (max)       0.00 MB       (current)
 **********************************************************************************************************************************


 PROGRAM * CCSD (Unrestricted open-shell coupled cluster)     Authors: C. Hampel, H.-J. Werner, 1991, M. Deegan, P.J. Knowles, 1992


 Convergence thresholds:  THRVAR = 1.00D-08  THRDEN = 1.00D-06

 CCSD(T)     terms to be evaluated (factor= 1.000)


 Number of core orbitals:           8 (   8 )
 Number of closed-shell orbitals:  13 (  13 )
 Number of external orbitals:     236 ( 236 )

 Memory could be reduced to 305.76 Mwords without degradation in triples

 Number of N-1 electron functions:              26
 Number of N-2 electron functions:             325
 Number of singly external CSFs:              6136
 Number of doubly external CSFs:          13738504
 Total number of CSFs:                    13744640

 Molecular orbitals read from record     2100.2  Type=RHF/CANONICAL (state 1.1)

 Integral transformation finished. Total CPU:  19.62 sec, npass=  1  Memory used: 130.67 MW

 Starting RMP2 calculation

 ITER.      SQ.NORM     CORR.ENERGY   TOTAL ENERGY   ENERGY CHANGE        DEN1      VAR(S)    VAR(P)  DIIS     TIME
   1      1.25868540    -0.86825948  -587.77773851    -0.86825948    -0.00317456  0.35D-10  0.13D-02  1  1    22.59
   2      1.26184162    -0.87167199  -587.78115101    -0.00341250    -0.00000448  0.18D-11  0.28D-05  2  2    24.26
   3      1.26194113    -0.87172889  -587.78120791    -0.00005690    -0.00000002  0.14D-12  0.15D-07  3  3    26.11
   4      1.26194349    -0.87172930  -587.78120833    -0.00000042    -0.00000000  0.12D-13  0.16D-09  4  4    27.95

 Norm of t1 vector:      0.00003430      S-energy:    -0.00000000      T1 diagnostic:  0.00000476
 Norm of t2 vector:      0.51180415      P-energy:    -0.87172930
                                         Alpha-Beta:  -0.65289283
                                         Alpha-Alpha: -0.10941824
                                         Beta-Beta:   -0.10941824

 Spin contamination <S**2-Sz**2-Sz>     0.00000000
  Reference energy                   -586.909479024307
  RHF-RMP2 correlation energy          -0.871729301853
 !RHF-RMP2 energy                    -587.781208326160

 Starting UCCSD calculation

 ITER.      SQ.NORM     CORR.ENERGY   TOTAL ENERGY   ENERGY CHANGE        DEN1      VAR(S)    VAR(P)  DIIS     TIME
   1      1.25585076    -0.85672216  -587.76620119    -0.85672216    -0.02646707  0.64D-02  0.53D-02  1  1    69.84
   2      1.28040902    -0.88060509  -587.79008411    -0.02388292    -0.00259533  0.18D-03  0.98D-03  2  2   107.92
   3      1.29094921    -0.88478390  -587.79426293    -0.00417882    -0.00034004  0.25D-03  0.52D-04  3  3   142.11
   4      1.29572980    -0.88634479  -587.79582382    -0.00156089    -0.00006371  0.36D-04  0.16D-04  4  4   176.25
   5      1.29812296    -0.88666621  -587.79614523    -0.00032141    -0.00001562  0.17D-04  0.19D-05  5  5   211.52
   6      1.29937210    -0.88678721  -587.79626623    -0.00012100    -0.00000344  0.31D-05  0.77D-06  6  6   247.46
   7      1.29997317    -0.88683321  -587.79631223    -0.00004600    -0.00000091  0.12D-05  0.19D-06  6  1   281.83
   8      1.30013739    -0.88683894  -587.79631797    -0.00000573    -0.00000032  0.40D-06  0.85D-07  6  2   316.61
   9      1.30023815    -0.88683848  -587.79631750     0.00000047    -0.00000013  0.19D-06  0.30D-07  6  3   351.13
  10      1.30029913    -0.88684375  -587.79632278    -0.00000528    -0.00000005  0.73D-07  0.12D-07  6  4   385.73
  11      1.30032962    -0.88684264  -587.79632166     0.00000112    -0.00000002  0.20D-07  0.45D-08  6  5   420.19
  12      1.30036269    -0.88684374  -587.79632276    -0.00000110    -0.00000000  0.46D-08  0.93D-09  6  6   454.55
  13      1.30036715    -0.88684303  -587.79632205     0.00000071    -0.00000000  0.83D-09  0.31D-09  6  1   489.52

 Norm of t1 vector:      0.13521508      S-energy:     0.00000068      T1 diagnostic:  0.01875096
                                                                       D1 diagnostic:  0.06191341
 Norm of t2 vector:      0.53111584      P-energy:    -0.88684371
                                         Alpha-Beta:  -0.69276737
                                         Alpha-Alpha: -0.09703817
                                         Beta-Beta:   -0.09703817

 Spin contamination <S**2-Sz**2-Sz>     0.00000000

 Memory could be reduced to 323.49 Mwords without degradation in triples
 

 RESULTS
 =======

  Reference energy                   -586.909479024307
  UCCSD singles energy                  0.000000678723
  UCCSD pair energy                    -0.886843709099
  UCCSD correlation energy             -0.886843030375
  Triples (T) contribution             -0.042162380678
  Total correlation energy             -0.929005411054
 
  RHF-UCCSD energy                   -587.796322054683
  RHF-UCCSD[T] energy                -587.841046279406
  RHF-UCCSD-T energy                 -587.837541122460
 !RHF-UCCSD(T) energy                -587.838484435361

 Program statistics:

 Available memory in ccsd:               999998418
 Min. memory needed in ccsd:              38892481
 Max. memory used in ccsd:                56141180
 Max. memory used in cckext:              44667169 (13 integral passes)
 Max. memory used in cckint:             130665670 ( 1 integral passes)



 **********************************************************************************************************************************
 DATASETS  * FILE   NREC   LENGTH (MB)   RECORD NAMES
              1      18       22.44       500      610      700      900      950      970     1000      129      960     1100   
                                          VAR    BASINP    GEOM    SYMINP    ZMAT    AOBASIS   BASIS     P2S    ABASIS      S 
                                         1400     1410     1200     1210     1080     1600     1650     1700   
                                           T        V       H0       H01     AOSYM     SMH    MOLCAS    OPER   

              2       6        6.19       500      610      700     1000      520     2100   
                                          VAR    BASINP    GEOM     BASIS   MCVARS     RHF  

 PROGRAMS   *        TOTAL  UCCSD(T)        HF       INT      FILE
 CPU TIMES  *      1015.27    989.31      7.81     17.68      0.01
 REAL TIME  *      1119.28 SEC
 DISK USED  *        22.95 GB      
 SF USED    *         5.61 GB      
 GA USED    *         0.00 MB       (max)       0.00 MB       (current)
 **********************************************************************************************************************************
 SETTING EHF(1)         =      -586.90947902  AU                              
 SETTING ECOR_CCSDT(1)  =        -0.92900541  AU                              
 SETTING ECOR_MP2(1)    =        -0.87172930  AU                              
 SETTING BASIS          =    AUG-CC-PVQZ


 Recomputing integrals since basis changed


 Using spherical harmonics

 Library entry C      S aug-cc-pVQZ          selected for orbital group  1
 Library entry C      P aug-cc-pVQZ          selected for orbital group  1
 Library entry C      D aug-cc-pVQZ          selected for orbital group  1
 Library entry C      F aug-cc-pVQZ          selected for orbital group  1
 Library entry C      G aug-cc-pVQZ          selected for orbital group  1
 Library entry H      S aug-cc-pVQZ          selected for orbital group  2
 Library entry H      P aug-cc-pVQZ          selected for orbital group  2
 Library entry H      D aug-cc-pVQZ          selected for orbital group  2
 Library entry H      F aug-cc-pVQZ          selected for orbital group  2
 Library entry O      S aug-cc-pVQZ          selected for orbital group  3
 Library entry O      P aug-cc-pVQZ          selected for orbital group  3
 Library entry O      D aug-cc-pVQZ          selected for orbital group  3
 Library entry O      F aug-cc-pVQZ          selected for orbital group  3
 Library entry O      G aug-cc-pVQZ          selected for orbital group  3
 Library entry S      S aug-cc-pVQZ          selected for orbital group  4
 Library entry S      P aug-cc-pVQZ          selected for orbital group  4
 Library entry S      D aug-cc-pVQZ          selected for orbital group  4
 Library entry S      F aug-cc-pVQZ          selected for orbital group  4
 Library entry S      G aug-cc-pVQZ          selected for orbital group  4


 PROGRAM * SEWARD (Integral evaluation for generally contracted gaussian basis sets)     Author: Roland Lindh, 1990

 Geometry written to block  1 of record 700


 Point group  C1  



 ATOMIC COORDINATES

 NR  ATOM    CHARGE       X              Y              Z

   1  C       6.00    0.101017767    1.520434900    0.188925936
   2  H       1.00   -0.440790524    0.750455220    2.036600552
   3  H       1.00    2.166215355    1.773087882    0.175293830
   4  H       1.00   -0.811293818    3.368099123   -0.054745744
   5  O       8.00   -0.693829387   -0.056676477   -1.781091061
   6  S      16.00    0.468860705   -3.111236966   -1.471044452
   7  O       8.00   -0.790180286   -4.244163493    0.906060938

 Bond lengths in Bohr (Angstrom)

 1-2  2.073722841  1-3  2.080639431  1-4  2.074982264  1-5  2.645756841  5-6  3.283034713
     ( 1.097366869)     ( 1.101026971)     ( 1.098033327)     ( 1.400074226)     ( 1.737307153)

 6-7  2.918790291
     ( 1.544557306)

 Bond angles

  1-5-6  112.20325499   2-1-3  108.07486047   2-1-4  108.68614046   2-1-5  111.32185735

  3-1-4  109.11783056   3-1-5  111.45059372   4-1-5  108.13518953   5-6-7  106.57582883

 NUCLEAR CHARGE:                   41
 NUMBER OF PRIMITIVE AOS:         662
 NUMBER OF SYMMETRY AOS:          535
 NUMBER OF CONTRACTIONS:          462   ( 462A   )
 NUMBER OF CORE ORBITALS:           8   (   8A   )
 NUMBER OF VALENCE ORBITALS:       19   (  19A   )


 NUCLEAR REPULSION ENERGY  169.32606947


 Eigenvalues of metric

         1 0.142E-04 0.239E-04 0.274E-04 0.468E-04 0.660E-04 0.722E-04 0.809E-04 0.832E-04


 Contracted 2-electron integrals neglected if value below      1.0D-12
 AO integral compression algorithm  1   Integral accuracy      1.0D-12

     25196.757 MB (compressed) written to integral file ( 49.3%)

     Node minimum: 2251.817 MB, node maximum: 3377.201 MB


 NUMBER OF SORTED TWO-ELECTRON INTEGRALS:  714974120.     BUFFER LENGTH:  32768
 NUMBER OF SEGMENTS:  23  SEGMENT LENGTH:   31996696      RECORD LENGTH: 524288

 Memory used in sort:      32.55 MW

 SORT1 READ  6392871922. AND WROTE   674123574. INTEGRALS IN   1942 RECORDS. CPU TIME:  1782.38 SEC, REAL TIME:  1835.23 SEC
 SORT2 READ  5391687238. AND WROTE  5719525581. INTEGRALS IN 103064 RECORDS. CPU TIME:    11.90 SEC, REAL TIME:  1072.10 SEC

 Node minimum:   714893906.  Node maximum:   714987490. integrals

 OPERATOR DM      FOR CENTER  0  COORDINATES:    0.000000    0.000000    0.000000


 **********************************************************************************************************************************
 DATASETS  * FILE   NREC   LENGTH (MB)   RECORD NAMES
              1      18       27.83       500      610      700      900      950      970     1001      129      960     1100   
                                          VAR    BASINP    GEOM    SYMINP    ZMAT    AOBASIS   BASIS     P2S    ABASIS      S 
                                         1400     1410     1200     1210     1080     1600     1650     1700   
                                           T        V       H0       H01     AOSYM     SMH    MOLCAS    OPER   

              2       7        7.61       500      610      700     1000      520     2100     1001   
                                          VAR    BASINP    GEOM     BASIS   MCVARS     RHF     BASIS   

 PROGRAMS   *        TOTAL       INT  UCCSD(T)        HF       INT      FILE
 CPU TIMES  *      2840.11   1824.78    989.31      7.81     17.68      0.01
 REAL TIME  *      4120.20 SEC
 DISK USED  *       104.38 GB      
 SF USED    *         5.61 GB      
 GA USED    *         0.00 MB       (max)       0.00 MB       (current)
 **********************************************************************************************************************************


 PROGRAM * RHF-SCF (CLOSED SHELL)       Authors: W. Meyer, H.-J. Werner


 NUMBER OF ELECTRONS:      21+   21-    SPACE SYMMETRY=1    SPIN SYMMETRY: Singlet 
 CONVERGENCE THRESHOLDS:    1.00E-05 (Density)    1.00E-07 (Energy)
 MAX. NUMBER OF ITERATIONS:       60
 INTERPOLATION TYPE:            DIIS
 INTERPOLATION STEPS:              2 (START)      1 (STEP)
 LEVEL SHIFTS:                  0.00 (CLOSED)  0.00 (OPEN) 



 Molecular orbitals read from record     2100.2  Type=RHF/CANONICAL (state 1.1)
 
 Present basis size:     462
 Previous basis size:    257
 Previous occupation:     21
 Previous closed-shells:  21
 Previous core-orbitals:   8
 Present occupation:      21
 Present closed-shells:   21
 Present core-orbitals:    8
 Wavefunction symmetry:    1   Singlet 

 Orbital overlap <old|new>:  < 1.1| 1.1> = 1.000000   < 2.1| 2.1> = 0.999999   < 3.1| 3.1> = 0.999999   < 4.1| 4.1> = 0.999999
                             < 5.1| 5.1> = 1.000000   < 6.1| 6.1> = 0.999999   < 7.1| 7.1> = 0.999998   < 8.1| 8.1> = 0.999998
                             < 9.1| 9.1> = 0.999996   <10.1|10.1> = 0.999993   <11.1|11.1> = 0.999995   <12.1|12.1> = 0.999995
                             <13.1|13.1> = 0.999987   <14.1|14.1> = 0.999989   <15.1|15.1> = 0.999986   <16.1|16.1> = 0.999982
                             <17.1|17.1> = 0.999983   <18.1|18.1> = 0.999976   <19.1|19.1> = 0.999977   <20.1|20.1> = 0.999973
                             <21.1|21.1> = 0.999978

 Molecular orbital dump at record        2101.2

 ITERATION    DDIFF          GRAD             ENERGY        2-EL.EN.            DIPOLE MOMENTS         DIIS   ORB.
    1      0.000D+00      0.000D+00      -586.92447245    799.511670    0.48936    3.20860    0.56010    0    start
    2      0.000D+00      0.114D-02      -586.92789107    799.673059    0.48470    3.20879    0.56558    1    diag
    3      0.502D-02      0.724D-04      -586.92792162    799.572573    0.48177    3.20927    0.56485    2    diag
    4      0.418D-03      0.134D-04      -586.92792352    799.615464    0.48240    3.20920    0.56563    3    diag
    5      0.436D-04      0.587D-05      -586.92792396    799.601073    0.48179    3.20951    0.56524    4    diag
    6      0.144D-04      0.210D-05      -586.92792404    799.600948    0.48195    3.20930    0.56534    5    diag
    7      0.370D-05      0.104D-05      -586.92792406    799.601220    0.48189    3.20941    0.56516    0    orth

 Final occupancy:  21

 !RHF STATE 1.1 Energy               -586.927924063853
 Nuclear energy                       169.32606947
 One-electron energy                -1156.05460360
 Two-electron energy                  399.80061006
 Virial quotient                       -1.00048828
 !RHF STATE 1.1 Dipole moment           0.48189024     3.20941178     0.56515959
 Dipole moment /Debye                   1.22476260     8.15697678     1.43639830

 Orbital energies:

         1.1          2.1          3.1          4.1          5.1          6.1          7.1          8.1          9.1         10.1
    -91.805595   -20.377614   -20.284575   -11.106753    -8.793575    -6.475834    -6.473754    -6.472844    -1.176780    -1.066030

        11.1         12.1         13.1         14.1         15.1         16.1         17.1         18.1         19.1         20.1
     -0.760055    -0.622418    -0.459067    -0.454383    -0.428006    -0.325031    -0.317749    -0.295917    -0.249022    -0.202291

        21.1         22.1         23.1
     -0.079398     0.117439     0.131506

 HOMO     21.1    -0.079398 =      -2.1605eV
 LUMO     22.1     0.117439 =       3.1957eV
 LUMO-HOMO         0.196838 =       5.3562eV


 **********************************************************************************************************************************
 DATASETS  * FILE   NREC   LENGTH (MB)   RECORD NAMES
              1      18       27.83       500      610      700      900      950      970     1001      129      960     1100   
                                          VAR    BASINP    GEOM    SYMINP    ZMAT    AOBASIS   BASIS     P2S    ABASIS      S 
                                         1400     1410     1200     1210     1080     1600     1650     1700   
                                           T        V       H0       H01     AOSYM     SMH    MOLCAS    OPER   

              2       8       14.38       500      610      700     1000      520     2100     1001     2101   
                                          VAR    BASINP    GEOM     BASIS   MCVARS     RHF     BASIS     RHF  

 PROGRAMS   *        TOTAL        HF       INT  UCCSD(T)        HF       INT      FILE
 CPU TIMES  *      2919.77     79.66   1824.78    989.31      7.81     17.68      0.01
 REAL TIME  *      4400.02 SEC
 DISK USED  *       104.38 GB      
 SF USED    *         5.61 GB      
 GA USED    *         0.00 MB       (max)       0.00 MB       (current)
 **********************************************************************************************************************************


 PROGRAM * CCSD (Unrestricted open-shell coupled cluster)     Authors: C. Hampel, H.-J. Werner, 1991, M. Deegan, P.J. Knowles, 1992


 Convergence thresholds:  THRVAR = 1.00D-08  THRDEN = 1.00D-06

 CCSD(T)     terms to be evaluated (factor= 1.000)


 Number of core orbitals:           8 (   8 )
 Number of closed-shell orbitals:  13 (  13 )
 Number of external orbitals:     441 ( 441 )

 For full I/O caching in triples, increase memory by 836.12 Mwords to 1836.40 Mwords.

 Number of N-1 electron functions:              26
 Number of N-2 electron functions:             325
 Number of singly external CSFs:             11466
 Number of doubly external CSFs:          48002409
 Total number of CSFs:                    48013875

 Molecular orbitals read from record     2101.2  Type=RHF/CANONICAL (state 1.1)

 Integral transformation finished. Total CPU: 216.36 sec, npass=  1  Memory used: 728.59 MW

 Starting RMP2 calculation

 ITER.      SQ.NORM     CORR.ENERGY   TOTAL ENERGY   ENERGY CHANGE        DEN1      VAR(S)    VAR(P)  DIIS     TIME
   1      1.26386264    -0.92445465  -587.85237871    -0.92445465    -0.00320407  0.15D-09  0.13D-02  1  1   234.54
   2      1.26703745    -0.92789602  -587.85582008    -0.00344137    -0.00000464  0.37D-11  0.29D-05  2  2   292.80
   3      1.26714033    -0.92795553  -587.85587959    -0.00005951    -0.00000002  0.15D-12  0.16D-07  3  3   302.30
   4      1.26714283    -0.92795597  -587.85588003    -0.00000044    -0.00000000  0.88D-14  0.19D-09  4  4   310.89

 Norm of t1 vector:      0.00008568      S-energy:    -0.00000001      T1 diagnostic:  0.00001188
 Norm of t2 vector:      0.51685861      P-energy:    -0.92795596
                                         Alpha-Beta:  -0.70216134
                                         Alpha-Alpha: -0.11289731
                                         Beta-Beta:   -0.11289731

 Spin contamination <S**2-Sz**2-Sz>     0.00000000
  Reference energy                   -586.927924063855
  RHF-RMP2 correlation energy          -0.927955970786
 !RHF-RMP2 energy                    -587.855880034641

 Starting UCCSD calculation

 ITER.      SQ.NORM     CORR.ENERGY   TOTAL ENERGY   ENERGY CHANGE        DEN1      VAR(S)    VAR(P)  DIIS     TIME
   1      1.25718332    -0.90477856  -587.83270263    -0.90477856    -0.02645159  0.62D-02  0.52D-02  1  1   530.61
   2      1.28050693    -0.92810674  -587.85603081    -0.02332818    -0.00265471  0.18D-03  0.96D-03  2  2   767.64
   3      1.29111313    -0.93253546  -587.86045953    -0.00442872    -0.00033215  0.24D-03  0.52D-04  3  3  1018.70
   4      1.29555932    -0.93405570  -587.86197976    -0.00152023    -0.00006559  0.36D-04  0.16D-04  4  4  1258.80
   5      1.29798535    -0.93440108  -587.86232514    -0.00034538    -0.00001547  0.16D-04  0.19D-05  5  5  1472.45
   6      1.29918326    -0.93452444  -587.86244851    -0.00012336    -0.00000334  0.30D-05  0.70D-06  6  6  1702.74
   7      1.29974755    -0.93456559  -587.86248965    -0.00004115    -0.00000087  0.10D-05  0.19D-06  6  2  1922.24
   8      1.29991001    -0.93457321  -587.86249728    -0.00000763    -0.00000027  0.33D-06  0.73D-07  6  1  2130.08
   9      1.29999839    -0.93457513  -587.86249919    -0.00000192    -0.00000011  0.16D-06  0.26D-07  6  3  2562.89
  10      1.30002813    -0.93457753  -587.86250160    -0.00000240    -0.00000005  0.71D-07  0.11D-07  6  5  2751.74
  11      1.30006824    -0.93457796  -587.86250202    -0.00000043    -0.00000001  0.18D-07  0.40D-08  6  4  2960.57
  12      1.30009056    -0.93457756  -587.86250163     0.00000039    -0.00000000  0.47D-08  0.97D-09  6  6  3170.45

 Norm of t1 vector:      0.13060473      S-energy:    -0.00000111      T1 diagnostic:  0.01811162
                                                                       D1 diagnostic:  0.06023025
 Norm of t2 vector:      0.53200843      P-energy:    -0.93457646
                                         Alpha-Beta:  -0.73446663
                                         Alpha-Alpha: -0.10005491
                                         Beta-Beta:   -0.10005491

 Spin contamination <S**2-Sz**2-Sz>     0.00000000

 For full I/O caching in triples, increase memory by 881.20 Mwords to 1881.48 Mwords.
 

 RESULTS
 =======

  Reference energy                   -586.927924063855
  UCCSD singles energy                 -0.000001106373
  UCCSD pair energy                    -0.934576458246
  UCCSD correlation energy             -0.934577564619
  Triples (T) contribution             -0.045545996861
  Total correlation energy             -0.980123561480
 
  RHF-UCCSD energy                   -587.862501628474
  RHF-UCCSD[T] energy                -587.910530907528
  RHF-UCCSD-T energy                 -587.907176217072
 !RHF-UCCSD(T) energy                -587.908047625335

 Program statistics:

 Available memory in ccsd:               999998418
 Min. memory needed in ccsd:             134867581
 Max. memory used in ccsd:               195304594
 Max. memory used in cckext:             143694448 (12 integral passes)
 Max. memory used in cckint:             728591300 ( 1 integral passes)



 **********************************************************************************************************************************
 DATASETS  * FILE   NREC   LENGTH (MB)   RECORD NAMES
              1      18       27.83       500      610      700      900      950      970     1001      129      960     1100   
                                          VAR    BASINP    GEOM    SYMINP    ZMAT    AOBASIS   BASIS     P2S    ABASIS      S 
                                         1400     1410     1200     1210     1080     1600     1650     1700   
                                           T        V       H0       H01     AOSYM     SMH    MOLCAS    OPER   

              2       8       14.38       500      610      700     1000      520     2100     1001     2101   
                                          VAR    BASINP    GEOM     BASIS   MCVARS     RHF     BASIS     RHF  

 PROGRAMS   *        TOTAL  UCCSD(T)        HF       INT  UCCSD(T)        HF       INT      FILE
 CPU TIMES  *     11687.57   8767.67     79.66   1824.78    989.31      7.81     17.68      0.01
 REAL TIME  *     29689.68 SEC
 DISK USED  *       139.14 GB      
 SF USED    *        31.86 GB      
 GA USED    *         0.00 MB       (max)       0.00 MB       (current)
 **********************************************************************************************************************************
 SETTING EHF(2)         =      -586.92792406  AU                              
 SETTING ECOR_CCSDT(2)  =        -0.98012356  AU                              
 SETTING ECOR_MP2(2)    =        -0.92795597  AU                              

 
 Extrapolating energy using  ECORR and basissets AVTZ AVQZ

 *** Long output written to logfile /home/vallet/John-methylsulfonyl/Units/CH3SO2-m1/geom-cis-CH3OSO-m1/optg-freq-pbe0/CCSD-T/cis-CH3OSO-m1.CCSD-T-CBS.log ***


 Extrapolating reference energy using E(n)=ECBS+A*(l+1)*exp(-9*sqrt(l))

 E(CBS)=  -586.93025271  A= 0.305798D+05

 Extrapolating correlation energy using function (n+ 0.5)^{-X} with X= 4.0
 
 L=3  E=    -0.92900541  EFIT=    -0.92900541
 L=4  E=    -0.98012356  EFIT=    -0.98012356

 E(CBS)=    -1.00962709  Coefficients:   12.0983

 BASIS           EREF            ECORR           ETOT
 AVTZ       -586.90947902     -0.92900541   -587.83848444
 AVQZ       -586.92792406     -0.98012356   -587.90804763
 CBS        -586.93025271     -1.00962709   -587.93987980
 


 **********************************************************************************************************************************
 DATASETS  * FILE   NREC   LENGTH (MB)   RECORD NAMES
              1      18       27.83       500      610      700      900      950      970     1001      129      960     1100   
                                          VAR    BASINP    GEOM    SYMINP    ZMAT    AOBASIS   BASIS     P2S    ABASIS      S 
                                         1400     1410     1200     1210     1080     1600     1650     1700   
                                           T        V       H0       H01     AOSYM     SMH    MOLCAS    OPER   

              2       8       14.38       500      610      700     1000      520     2100     1001     2101   
                                          VAR    BASINP    GEOM     BASIS   MCVARS     RHF     BASIS     RHF  

 PROGRAMS   *        TOTAL  EXTRAPOL  UCCSD(T)        HF       INT  UCCSD(T)        HF       INT      FILE
 CPU TIMES  *     11687.60      0.00   8767.67     79.66   1824.78    989.31      7.81     17.68      0.01
 REAL TIME  *     29689.76 SEC
 DISK USED  *       139.14 GB      
 SF USED    *        31.86 GB      
 GA USED    *         0.00 MB       (max)       0.00 MB       (current)
 **********************************************************************************************************************************

 
 Extrapolating energy using  ECORR and basissets AVTZ AVQZ

 Extrapolating reference energy using E(n)=ECBS+A*(l+1)*exp(-9*sqrt(l))

 E(CBS)=  -586.93025271  A= 0.305798D+05

 Extrapolating correlation energy using function (n+ 0.5)^{-X} with X= 4.0
 
 L=3  E=    -0.87172930  EFIT=    -0.87172930
 L=4  E=    -0.92795597  EFIT=    -0.92795597

 E(CBS)=    -0.96040795  Coefficients:   13.3073

 BASIS           EREF            ECORR           ETOT
 AVTZ       -586.90947902     -0.87172930   -587.78120833
 AVQZ       -586.92792406     -0.92795597   -587.85588003
 CBS        -586.93025271     -0.96040795   -587.89066066
 


 **********************************************************************************************************************************
 DATASETS  * FILE   NREC   LENGTH (MB)   RECORD NAMES
              1      18       27.83       500      610      700      900      950      970     1001      129      960     1100   
                                          VAR    BASINP    GEOM    SYMINP    ZMAT    AOBASIS   BASIS     P2S    ABASIS      S 
                                         1400     1410     1200     1210     1080     1600     1650     1700   
                                           T        V       H0       H01     AOSYM     SMH    MOLCAS    OPER   

              2       8       14.38       500      610      700     1000      520     2100     1001     2101   
                                          VAR    BASINP    GEOM     BASIS   MCVARS     RHF     BASIS     RHF  

 PROGRAMS   *        TOTAL  EXTRAPOLEXTRAPOLAT  UCCSD(T)        HF       INT  UCCSD(T)        HF       INT      FILE
 CPU TIMES  *     11687.60      0.00      0.00   8767.67     79.66   1824.78    989.31      7.81     17.68      0.01
 REAL TIME  *     29689.78 SEC
 DISK USED  *       139.14 GB      
 SF USED    *        31.86 GB      
 GA USED    *         0.00 MB       (max)       0.00 MB       (current)
 **********************************************************************************************************************************

 UCCSD(T)/aug-cc-pVTZ:aug-cc-pVQZ energy=   -587.890660661885

        UCCSD(T)        HF-SCF          UCCSD(T)        HF-SCF  
   -587.90804763   -586.92792406   -587.83848444   -586.90947902
 **********************************************************************************************************************************
 Molpro calculation terminated
 Variable memory released
