   This run of MOLCAS is using the pymolcas driver

                             OPE
                             OPE          NMOL  CASOP  ENMOLC A   SO
                 OPE        NMOLC        AS  OP EN  MO LC     AS  OP
                OPENM       OL CA        SO  PE NM  OL CA     SOP EN
                OP EN      MO   LC       AS  OP ENMOL  CASO   PENMOL
                OP  EN     MO   LC       AS  OP EN     MO     LC ASO
               OP   E  NMOL  C  AS       OP  EN MO     LC     AS  OP
               OP  E   NMO   LC AS        OPEN  MO     LCASOP EN   M
               O  PEN   MO  LCA  SO
            OPE   NMO   L   CAS    OP
        OPENMOL  CASOP     ENMOL   CASOPE
     OPENMOLCA   SOPENMOLCASOPEN   MOLCASOPE
    OPENMOLCAS   OP           EN   MOL    CAS
    OPENMOLCAS       OP  ENM        O     LCA
    OPENMOLCAS    OPEN  MOLCASO     P  E  NMO
    OPENMOLCAS     OP               E  N  MOL
    OPENMOLCA   SO           PENM   O  L  CAS    OPEN    MO    LCAS
    OPENMOLCA   SOP           ENM   O  L  CAS   OP  EN  MOLC  AS   O
    OPENMOLCA   SOPE           NM      O  LCA   S      OP  EN MO
    OPENMOLC                AS         O  PEN   M      OL  CA  SOPE
    OPENMO        LCASOPE  NMOL        C  ASO   P      ENMOLC     AS
    OPE     NMO      LCA  SO     P     E   NM   OL  CA SO  PE N   MO
          OPENMOLCA            SOPE   NMO        LCAS  O    P  ENMO
     OPENMOLCASOPENMOLCASOPENMOLCASOPENMOLCA
        OPENMOLCASOPENMOLCASOPENMOLCASOPE
            OPENMOLCASOPENMOLCASOPENM
               OPENMOLCASOPENMOLCA        version: 18.09
                   OPENMOLCASO
                       OPE                tag: 50-g6d6e5e5-dirty

 OpenMolcas is free software; you can redistribute it and/or modify it
 under the terms of the GNU Lesser General Public License version 2.1.
 OpenMolcas is distributed in the hope that it will be useful, but it
 is provided "as is" and without any express or implied warranties.
 For more details see the full text of the license in the file
 LICENSE or in <http://www.gnu.org/licenses/>.

                 Copyright (C) The OpenMolcas Authors
           For the author list and the recommended citation,
                   consult the file CONTRIBUTORS.md

           *************************************************
           * pymolcas version py2.04                       *
           *   build 3b3f1139d1f9af0cd96dc01c0ce9d5c0      *
           *   (after the EMIL interpreter by V. Veryazov) *
           *************************************************

configuration info
------------------
C Compiler ID: Intel
C flags: -std=gnu99 -qopenmp
Fortran Compiler ID: Intel
Fortran flags: -fpp -i8 -r8 -heap-arrays -qopenmp
Definitions: _MOLCAS_;_I8_;_LINUX_;_MKL_;_FDE_
Parallel: OFF (GA=OFF)


   ---------------------------------------------------------------------------------------------------------------
  |
  |           Project: PuO2_C6H5SO2_C6H5SO2-m1-quartet.casscf.MB
  |    Submitted from: /home/vallet/John-methylsulfonyl/PuO2_C6H5SO2_C6H5SO2-m1/geom-quartet/optg-freq-pbe0/SO-XMS
  |      Scratch area: /state/partition1/vallet/499057.phlam-s-sakura/PuO2_C6H5SO2_C6H5SO2-m1-quartet.casscf.MB
  |   Save outputs to: /home/vallet/John-methylsulfonyl/PuO2_C6H5SO2_C6H5SO2-m1/geom-quartet/optg-freq-pbe0/SO-XMS
  |            Molcas: /home/pcmt/OpenMolcas/OpenMolcas-20181005
  |
  | Scratch area is empty
  |
  |    MOLCAS_DRIVER = /home/pcmt/OpenMolcas/OpenMolcas-20181005/sbin/pymolcas
  |   MOLCAS_LICENSE = /home/pcmt/molcas/license
  |    MOLCAS_MOLDEN = ON
  |    MOLCAS_NPROCS = 1
  |    MOLCAS_SOURCE = /home/pcmt/OpenMolcas/OpenMolcas-20181005
  | MOLCAS_STRUCTURE = 0
  |
   ---------------------------------------------------------------------------------------------------------------

++ ---------   Input file   ---------

&GATEWAY
   COORD=$HomeDir/PuO2_C6H5SO2_C6H5SO2-m1-quartet.pbe0.optg-zaxis.xyz
   BASIS=ANO-RCC-MB
   Group=Nosym
   ANGM=0.0 0.0 0.0
   RICD

>>> COPY $Project.RunFile $HomeDir

&SEWARD

&RASSCF
   Spin=4
   Symmetry=1
   Nactel=3 0 0
   Inactive=127
   Ras2=4
   CIRoots=4 4 1

>>> COPY $Project.RasOrb $HomeDir/$Project.RasOrb_quartets

>>> COPY $Project.rasscf.molden $HomeDir/$Project.rasscf_quartets.molden

&RASSCF
   Spin=2
   Symmetry=1
   Nactel=3 0 0
   Inactive=127
   Ras2=4
   CIRoots=20 20 1

>>> COPY $Project.RasOrb $HomeDir/$Project.RasOrb_doublets

>>> COPY $Project.rasscf.molden $HomeDir/$Project.rasscf_doublets.molden

-- ----------------------------------

--- Start Module: gateway at Fri Nov 16 16:05:49 2018 ---
 
()()()()()()()()()()()()()()()()()()()()()()()()()()()()()()()()()()()()()()()()()()()()()()()()()()

                                              &GATEWAY

                                   only a single process is used
                       available to each process: 16 GB of memory, 8 threads
()()()()()()()()()()()()()()()()()()()()()()()()()()()()()()()()()()()()()()()()()()()()()()()()()()
 
 
++    Symmetry information:
      ---------------------
 
                    Character Table for C1 
 
                             E  
                    a        1  x, y, xy, Rz, z, xz, Ry, yz, Rx, I
--
 
 
++    Basis set information:
      ----------------------
 
 
      Basis set label: C.ANO-RCC...2S1P.
 
      Electronic valence basis set:
      ------------------
      Associated Effective Charge   6.000000 au
      Associated Actual Charge      6.000000 au
      Nuclear Model: Point charge
 
      Shell  nPrim  nBasis  Cartesian Spherical Contaminant
         s      14       2        X                  
         p       9       1        X                  
 
 
      Basis set label: S.ANO-RCC...3S2P.
 
      Electronic valence basis set:
      ------------------
      Associated Effective Charge  16.000000 au
      Associated Actual Charge     16.000000 au
      Nuclear Model: Point charge
 
      Shell  nPrim  nBasis  Cartesian Spherical Contaminant
         s      17       3        X                  
         p      12       2        X                  
 
 
      Basis set label: O.ANO-RCC...2S1P.
 
      Electronic valence basis set:
      ------------------
      Associated Effective Charge   8.000000 au
      Associated Actual Charge      8.000000 au
      Nuclear Model: Point charge
 
      Shell  nPrim  nBasis  Cartesian Spherical Contaminant
         s      14       2        X                  
         p       9       1        X                  
 
 
      Basis set label: PU.ANO-RCC...7S6P4D2F.
 
      Electronic valence basis set:
      ------------------
      Associated Effective Charge  94.000000 au
      Associated Actual Charge     94.000000 au
      Nuclear Model: Point charge
 
      Shell  nPrim  nBasis  Cartesian Spherical Contaminant
         s      26       7        X                  
         p      23       6        X                  
         d      17       4                 X         
         f      13       2                 X         
 
 
      Basis set label: O.ANO-RCC...2S1P.
 
      Electronic valence basis set:
      ------------------
      Associated Effective Charge   8.000000 au
      Associated Actual Charge      8.000000 au
      Nuclear Model: Point charge
 
      Shell  nPrim  nBasis  Cartesian Spherical Contaminant
         s      14       2        X                  
         p       9       1        X                  
 
 
      Basis set label: S.ANO-RCC...3S2P.
 
      Electronic valence basis set:
      ------------------
      Associated Effective Charge  16.000000 au
      Associated Actual Charge     16.000000 au
      Nuclear Model: Point charge
 
      Shell  nPrim  nBasis  Cartesian Spherical Contaminant
         s      17       3        X                  
         p      12       2        X                  
 
 
      Basis set label: C.ANO-RCC...2S1P.
 
      Electronic valence basis set:
      ------------------
      Associated Effective Charge   6.000000 au
      Associated Actual Charge      6.000000 au
      Nuclear Model: Point charge
 
      Shell  nPrim  nBasis  Cartesian Spherical Contaminant
         s      14       2        X                  
         p       9       1        X                  
 
 
      Basis set label: O.ANO-RCC...2S1P.
 
      Electronic valence basis set:
      ------------------
      Associated Effective Charge   8.000000 au
      Associated Actual Charge      8.000000 au
      Nuclear Model: Point charge
 
      Shell  nPrim  nBasis  Cartesian Spherical Contaminant
         s      14       2        X                  
         p       9       1        X                  
 
 
      Basis set label: C.ANO-RCC...2S1P.
 
      Electronic valence basis set:
      ------------------
      Associated Effective Charge   6.000000 au
      Associated Actual Charge      6.000000 au
      Nuclear Model: Point charge
 
      Shell  nPrim  nBasis  Cartesian Spherical Contaminant
         s      14       2        X                  
         p       9       1        X                  
 
 
      Basis set label: H.ANO-RCC...1S.
 
      Electronic valence basis set:
      ------------------
      Associated Effective Charge   1.000000 au
      Associated Actual Charge      1.000000 au
      Nuclear Model: Point charge
 
      Shell  nPrim  nBasis  Cartesian Spherical Contaminant
         s       8       1        X                  
 
 
      Basis set label: C.ANO-RCC...2S1P.
 
      Electronic valence basis set:
      ------------------
      Associated Effective Charge   6.000000 au
      Associated Actual Charge      6.000000 au
      Nuclear Model: Point charge
 
      Shell  nPrim  nBasis  Cartesian Spherical Contaminant
         s      14       2        X                  
         p       9       1        X                  
 
 
      Basis set label: H.ANO-RCC...1S.
 
      Electronic valence basis set:
      ------------------
      Associated Effective Charge   1.000000 au
      Associated Actual Charge      1.000000 au
      Nuclear Model: Point charge
 
      Shell  nPrim  nBasis  Cartesian Spherical Contaminant
         s       8       1        X                  
--
 
 
++    Molecular structure info:
      -------------------------
 
                    ************************************************ 
                    **** Cartesian Coordinates / Bohr, Angstrom **** 
                    ************************************************ 
 
     Center  Label                x              y              z                     x              y              z
        1      C1               3.097110       6.809590       2.829903              1.638920       3.603480       1.497520
        2      S2               2.438162       5.353084      -0.212462              1.290220       2.832730      -0.112430
        3      O3               3.823332       2.825537      -0.008239              2.023220       1.495210      -0.004360
        4      PU4              0.000000       0.000000       0.000000              0.000000       0.000000       0.000000
        5      O5              -3.820025      -2.830866       0.007427             -2.021470      -1.498030       0.003930
        6      S6              -2.430793      -5.355711       0.216298             -1.286320      -2.834120       0.114460
        7      C7              -3.086263      -6.818189      -2.823874             -1.633180      -3.608030      -1.494330
        8      O8              -0.378701       4.740321      -0.013776             -0.200400       2.508470      -0.007290
        9      O9               0.385183      -4.738772       0.017348              0.203830      -2.507650       0.009180
       10      O10             -0.001625       0.000340      -3.324236             -0.000860       0.000180      -1.759110
       11      O11              0.000000       0.000000       3.324274              0.000000       0.000000       1.759130
       12      C12             -4.098929      -9.229479      -2.841071             -2.169060      -4.884030      -1.503430
       13      C13             -4.619379     -10.411484      -5.128925             -2.444470      -5.509520      -2.714110
       14      C14             -4.120510      -9.162488      -7.376754             -2.180480      -4.848580      -3.903610
       15      C15             -3.103195      -6.737214      -7.340887             -1.642140      -3.565180      -3.884630
       16      C16             -2.580024      -5.551033      -5.066753             -1.365290      -2.937480      -2.681210
       17      H17             -4.477971     -10.177611      -1.062083             -2.369640      -5.385760      -0.562030
       18      H18             -5.411930     -12.300738      -5.153699             -2.863870      -6.509270      -2.727220
       19      H19             -4.523626     -10.075831      -9.165946             -2.393800      -5.331900      -4.850410
       20      H20             -2.716009      -5.766802      -9.103359             -1.437250      -3.051660      -4.817290
       21      H21             -1.784185      -3.662705      -5.001160             -0.944150      -1.938220      -2.646500
       22      C22              4.145473       9.205555       2.850538              2.193690       4.871370       1.508440
       23      C23              4.670949      10.381853       5.140206              2.471760       5.493840       2.720080
       24      C24              4.140163       9.143081       7.386373              2.190880       4.838310       3.908700
       25      C25              3.086603       6.733397       7.347047              1.633360       3.563160       3.887890
       26      C26              2.559124       5.552601       5.071118              1.354230       2.938310       2.683520
       27      H27              4.548250      10.146318       1.072854              2.406830       5.369200       0.567730
       28      H28              5.491903      12.258899       5.167702              2.906190       6.487130       2.734630
       29      H29              4.546322      10.052323       9.176982              2.405810       5.319460       4.856250
       30      H30              2.674303       5.770940       9.108159              1.415180       3.053850       4.819830
       31      H31              1.736583       3.675839       5.002880              0.918960       1.945170       2.647410
 
                    ************************************************* 
                    **** InterNuclear Distances / Bohr, Angstrom **** 
                    ************************************************* 
 
     Atom centers         Bohr        Angstrom
   19 H19      14 C14     2.048860        1.084210
   20 H20      15 C15   
   30 H30      25 C25   
   18 H18      13 C13     2.048895        1.084228
   28 H28      23 C23   
   29 H29      24 C24   
   21 H21      16 C16     2.050230        1.084935
   31 H31      26 C26   
   17 H17      12 C12     2.051201        1.085449
   27 H27      22 C22   
   12 C12       7 C7      2.615361        1.383989
   22 C22       1 C1    
   16 C16      15 C15     2.617703        1.385229
   26 C26      25 C25   
   14 C14      13 C13     2.619457        1.386157
   24 C24      23 C23   
   16 C16       7 C7      2.625350        1.389276
   26 C26       1 C1    
   13 C13      12 C12     2.627219        1.390264
   23 C23      22 C22     2.627238        1.390275
   15 C15      14 C14     2.630231        1.391858
   25 C25      24 C24   
    6 S6        5 O5      2.889365        1.528986
    3 O3        2 S2      2.889445        1.529028
    8 O8        2 S2      2.889580        1.529100
    9 O9        6 S6      2.889621        1.529122
   10 O10       4 PU4     3.324237        1.759110
   11 O11       4 PU4     3.324274        1.759130
    7 C7        6 S6      3.436733        1.818641
    2 S2        1 C1      3.436802        1.818677
   17 H17       7 C7      4.040604        2.138196
   27 H27       1 C1      4.040640        2.138215
   30 H30      26 C26     4.044581        2.140300
   20 H20      16 C16     4.044655        2.140339
   21 H21       7 C7      4.048834        2.142551
   31 H31       1 C1      4.048860        2.142564
   19 H19      13 C13     4.052083        2.144270
   29 H29      23 C23     4.052121        2.144290
   28 H28      24 C24     4.056849        2.146792
   18 H18      14 C14     4.056889        2.146813
   20 H20      14 C14     4.060108        2.148517
   30 H30      24 C24     4.060127        2.148526
   29 H29      25 C25     4.061368        2.149184
   19 H19      15 C15     4.061383        2.149191
   18 H18      12 C12     4.062616        2.149844
   28 H28      22 C22     4.062638        2.149855
   17 H17      13 C13     4.076013        2.156933
   27 H27      23 C23   
   31 H31      25 C25     4.082443        2.160336
   21 H21      15 C15     4.082488        2.160360
   31 H31      11 O11     4.398321        2.327491
   21 H21      10 O10     4.405394        2.331234
   15 C15       7 C7      4.517770        2.390701
   25 C25       1 C1      4.517799        2.390716
   13 C13       7 C7      4.536019        2.400358
   23 C23       1 C1    
   14 C14      12 C12     4.536229        2.400469
   24 C24      22 C22     4.536267        2.400489
   25 C25      23 C23     4.548795        2.407119
   15 C15      13 C13     4.548830        2.407137
   26 C26      24 C24     4.555396        2.410612
   16 C16      14 C14     4.555416        2.410622
   26 C26      22 C22     4.559775        2.412929
   16 C16      12 C12     4.559792        2.412938
    8 O8        3 O3      4.617738        2.443602
    9 O9        5 O5      4.617789        2.443628
   19 H19      18 H18     4.673053        2.472873
   29 H29      28 H28   
   20 H20      19 H19     4.673236        2.472970
   30 H30      29 H29     4.673267        2.472987
   18 H18      17 H17     4.703324        2.488892
   28 H28      27 H27   
   31 H31      30 H30     4.703412        2.488938
   21 H21      20 H20     4.703568        2.489021
    4 PU4       3 O3      4.754113        2.515768
    9 O9        4 PU4     4.754432        2.515937
    5 O5        4 PU4     4.754624        2.516039
    8 O8        4 PU4     4.755444        2.516473
    9 O9        7 C7      4.944437        2.616483
    8 O8        1 C1      4.944658        2.616600
    7 C7        5 O5      4.945039        2.616802
    3 O3        1 C1      4.945212        2.616894
   12 C12       6 S6      5.209248        2.756615
   22 C22       2 S2      5.209455        2.756725
   14 C14       7 C7      5.224377        2.764621
   24 C24       1 C1      5.224419        2.764644
   15 C15      12 C12     5.239391        2.772566
   25 C25      22 C22     5.239405        2.772574
   26 C26      23 C23     5.271267        2.789434
   16 C16      13 C13     5.271320        2.789463
   26 C26       2 S2      5.288729        2.798675
   16 C16       6 S6      5.288766        2.798694
   17 H17       6 S6      5.392209        2.853434
   27 H27       2 S2      5.392550        2.853614
   21 H21       5 O5      5.470150        2.894679
   31 H31       3 O3      5.494438        2.907531
   31 H31       2 S2      5.523147        2.922724
   21 H21       6 S6      5.523245        2.922776
   31 H31       8 O8      5.547467        2.935593
   21 H21       9 O9      5.572208        2.948685
--
 
 
            Nuclear Potential Energy           4029.09451636 au
 
--- Stop Module: gateway at Fri Nov 16 16:06:48 2018 /rc=_RC_ALL_IS_WELL_ ---
*** files: PuO2_C6H5SO2_C6H5SO2-m1-quartet.casscf.MB.RICDLib xmldump
    saved to directory /home/vallet/John-methylsulfonyl/PuO2_C6H5SO2_C6H5SO2-m1/geom-quartet/optg-freq-pbe0/SO-XMS
--- Module gateway spent 59 seconds ---

>>> COPY PuO2_C6H5SO2_C6H5SO2-m1-quartet.casscf.MB.RunFile /home/vallet/John-methylsulfonyl/PuO2_C6H5SO2_C6H5SO2-m1/geom-quartet/optg-freq-pbe0/SO-XMS

--- Start Module: seward at Fri Nov 16 16:06:48 2018 ---
 
()()()()()()()()()()()()()()()()()()()()()()()()()()()()()()()()()()()()()()()()()()()()()()()()()()

                                              &SEWARD

                                   only a single process is used
                       available to each process: 16 GB of memory, 8 threads
()()()()()()()()()()()()()()()()()()()()()()()()()()()()()()()()()()()()()()()()()()()()()()()()()()
 
               SEWARD will generate:
                  Multipole Moment integrals up to order  2
                  Kinetic Energy integrals
                  Nuclear Attraction integrals (point charge)
                  One-Electron Hamiltonian integrals
                  Velocity integrals
                  Relativistic Douglas-Kroll-Hess integrals:
                    - Parametrization         : EXP
                    - DKH order of Hamiltonian: 2
                    - DKH order of Properties : 0
                         - multipole moment operators
                         - electric potential operators
                         - contact operators
                  Orbital angular momentum around ( 0.0000  0.0000  0.0000 )
                  Atomic mean-field integrals
                  RI decomposed two-electron repulsion integrals stored Cholesky style
                   - acCD auxiliary basis
                   - CD Threshold:   0.10E-03
 
                   Integrals are discarded if absolute value <: 0.10E-13
                   Integral cutoff threshold is set to       <: 0.10E-15
 
            Nuclear Potential Energy           4029.09451636 au
 
 
      Basis set specifications :
      Symmetry species         a  
      Basis functions          177
 
 
  Input file to MOLDEN was generated!
 
--- Stop Module: seward at Fri Nov 16 16:07:34 2018 /rc=_RC_ALL_IS_WELL_ ---
*** files: PuO2_C6H5SO2_C6H5SO2-m1-quartet.casscf.MB.GssOrb PuO2_C6H5SO2_C6H5SO2-m1-quartet.casscf.MB.guessorb.h5 PuO2_C6H5SO2_C6H5SO2-m1-quartet.casscf.MB.guessorb.molden xmldump
    saved to directory /home/vallet/John-methylsulfonyl/PuO2_C6H5SO2_C6H5SO2-m1/geom-quartet/optg-freq-pbe0/SO-XMS
--- Module seward spent 45 seconds ---

*** symbolic link created: INPORB -> PuO2_C6H5SO2_C6H5SO2-m1-quartet.casscf.MB.GssOrb
--- Start Module: rasscf at Fri Nov 16 16:07:35 2018 ---
 
()()()()()()()()()()()()()()()()()()()()()()()()()()()()()()()()()()()()()()()()()()()()()()()()()()

                                              &RASSCF

                                   only a single process is used
                       available to each process: 16 GB of memory, 8 threads
()()()()()()()()()()()()()()()()()()()()()()()()()()()()()()()()()()()()()()()()()()()()()()()()()()
 
 
      Header of the ONEINT file:
      --------------------------
      
      Integrals generated by seward 4.2.0  , Fri Nov 16 16:06:49 2018
 
 
      OrdInt status: non-squared
 
 
      Cartesian coordinates in Angstrom:
      -----------------------------------------------------
      No.  Label        X            Y            Z        
      -----------------------------------------------------
       1   C1         1.63892000   3.60348000   1.49752000
       2   S2         1.29022000   2.83273000  -0.11243000
       3   O3         2.02322000   1.49521000  -0.00436000
       4   PU4        0.00000000   0.00000000   0.00000000
       5   O5        -2.02147000  -1.49803000   0.00393000
       6   S6        -1.28632000  -2.83412000   0.11446000
       7   C7        -1.63318000  -3.60803000  -1.49433000
       8   O8        -0.20040000   2.50847000  -0.00729000
       9   O9         0.20383000  -2.50765000   0.00918000
      10   O10       -0.00086000   0.00018000  -1.75911000
      11   O11        0.00000000   0.00000000   1.75913000
      12   C12       -2.16906000  -4.88403000  -1.50343000
      13   C13       -2.44447000  -5.50952000  -2.71411000
      14   C14       -2.18048000  -4.84858000  -3.90361000
      15   C15       -1.64214000  -3.56518000  -3.88463000
      16   C16       -1.36529000  -2.93748000  -2.68121000
      17   H17       -2.36964000  -5.38576000  -0.56203000
      18   H18       -2.86387000  -6.50927000  -2.72722000
      19   H19       -2.39380000  -5.33190000  -4.85041000
      20   H20       -1.43725000  -3.05166000  -4.81729000
      21   H21       -0.94415000  -1.93822000  -2.64650000
      22   C22        2.19369000   4.87137000   1.50844000
      23   C23        2.47176000   5.49384000   2.72008000
      24   C24        2.19088000   4.83831000   3.90870000
      25   C25        1.63336000   3.56316000   3.88789000
      26   C26        1.35423000   2.93831000   2.68352000
      27   H27        2.40683000   5.36920000   0.56773000
      28   H28        2.90619000   6.48713000   2.73463000
      29   H29        2.40581000   5.31946000   4.85625000
      30   H30        1.41518000   3.05385000   4.81983000
      31   H31        0.91896000   1.94517000   2.64741000
      -----------------------------------------------------
      Nuclear repulsion energy = 4029.09451636
 
++    Wave function specifications:
      -----------------------------
 
      Number of closed shell electrons         254
      Number of electrons in active shells       3
      Max number of holes in RAS1 space          0
      Max nr of electrons in RAS3 space          0
      Number of inactive orbitals              127
      Number of active orbitals                  4
      Number of secondary orbitals              46
      Spin quantum number                      1.5
      State symmetry                             1
--
 
++    Orbital specifications:
      -----------------------
 
      Symmetry species                           1
                                                 a
      Frozen orbitals                            0
      Inactive orbitals                        127
      Active orbitals                            4
      RAS1 orbitals                              0
      RAS2 orbitals                              4
      RAS3 orbitals                              0
      Secondary orbitals                        46
      Deleted orbitals                           0
      Number of basis functions                177
--
 
++    CI expansion specifications:
      ----------------------------
 
      Number of CSFs                             4
      Number of determinants                     4
      Number of root(s) required                 4
      Root chosen for geometry opt.              4
      CI roots used                              1     2     3     4
      weights                                0.250 0.250 0.250 0.250
      highest root included in the CI            4
      max. size of the explicit Hamiltonian      4
--
 
++    Optimization specifications:
      ----------------------------
 
      RASSCF algorithm: LK RI/DF
      Maximum number of macro iterations       200
      Maximum number of SX iterations          100
      Threshold for RASSCF energy            0.100E-07
      Threshold for max MO rotation          0.100E+00
      Threshold for max BLB element          0.100E-03
      Level shift parameter                  0.500E+00
      Make Quasi-Newton update
--
 
      Orbitals from runfile: guessorb orbitals
      The MO-coefficients are taken from guessorb on runfile
 
      Total molecular charge   -1.00
 
      ************************************************************************************************************************
      *                                                                                                                      *
      *                                            Wave function control section                                             *
      *                                                                                                                      *
      ************************************************************************************************************************
 
 
                                         RASSCF iterations: Energy and convergence statistics
                                         ----------------------------------------------------
 
      Iter CI   SX   CI       RASSCF       Energy    max ROT     max BLB   max BLB  Level Ln srch  Step   QN   Walltime
          iter iter root      energy       change     param      element    value   shift minimum  type update hh:mm:ss
 Nr of preliminary CI iterations:   1
      Total energies have been shifted. Add               -31000.00 au
        1   1   12    0  -231.03220565    0.00E+00  -0.30E+00* 117 134 1 -0.16E+01*  3.68   0.00    SX    NO    0:00:14
        2   1   12    0  -234.98434198   -0.40E+01* -0.28E+00* 122 129 1  0.16E+01*  2.97   0.00    SX    NO    0:00:04
        3   1   12    0  -237.91938766   -0.29E+01* -0.27E+00* 122 129 1  0.11E+01*  2.47   0.00    SX    NO    0:00:05
        4   1   12    0  -239.87737295   -0.20E+01* -0.24E+00* 122 129 1  0.53E+00*  1.98   0.00    SX    NO    0:00:05
        5   1   11    0  -241.23652772   -0.14E+01* -0.17E+00* 127 136 1  0.34E+00*  1.51   2.33    QN   YES    0:00:05
        6   1   11    0  -242.07227140   -0.84E+00* -0.12E+00* 127 136 1  0.27E+00*  1.16   2.26    QN   YES    0:00:05
        7   1   10    0  -242.60169835   -0.53E+00* -0.14E+00*  81 177 1 -0.23E+00*  0.93   2.35    QN   YES    0:00:04
        8   1    9    0  -242.98785948   -0.39E+00* -0.20E+00* 127 128 1  0.23E+00*  0.81   2.50    QN   YES    0:00:06
        9   1    9    0  -243.33451690   -0.35E+00* -0.25E+00* 127 128 1  0.28E+00*  0.76   2.50    QN   YES    0:00:06
       10   1    9    0  -243.66208429   -0.33E+00* -0.25E+00* 127 128 1  0.29E+00*  0.74   2.50    QN   YES    0:00:07
       11   1    9    0  -243.91282956   -0.25E+00* -0.20E+00* 127 128 1  0.22E+00*  0.75   2.15    QN   YES    0:00:07
       12   1    9    0  -244.06803589   -0.16E+00* -0.14E+00* 123 147 1 -0.13E+00*  0.78   1.97    QN   YES    0:00:05
       13   1    9    0  -244.17720156   -0.11E+00* -0.10E+00* 123 133 1 -0.12E+00*  0.81   2.23    QN   YES    0:00:06
       14   1    9    0  -244.28053562   -0.10E+00*  0.12E+00* 127 136 1 -0.11E+00*  0.82   2.41    QN   YES    0:00:06
       15   1    9    0  -244.38087483   -0.10E+00*  0.17E+00* 127 136 1 -0.89E-01*  0.81   2.45    QN   YES    0:00:06
       16   1    9    0  -244.47263760   -0.92E-01*  0.20E+00* 127 128 1 -0.80E-01*  0.77   2.28    QN   YES    0:00:06
       17   1   10    0  -244.54815873   -0.76E-01*  0.18E+00* 127 128 1 -0.80E-01*  0.71   1.94    QN   YES    0:00:06
       18   1   10    0  -244.60187197   -0.54E-01*  0.14E+00* 127 128 1 -0.62E-01*  0.66   1.81    QN   YES    0:00:06
       19   1   10    0  -244.64120223   -0.39E-01*  0.10E+00* 117 133 1 -0.50E-01*  0.64   1.86    QN   YES    0:00:05
       20   1   10    0  -244.67086970   -0.30E-01*  0.65E-01  117 133 1 -0.37E-01*  0.62   1.91    QN   YES    0:00:07
       21   1   10    0  -244.69306199   -0.22E-01*  0.88E-01  124 130 1  0.37E-01*  0.59   2.04    QN   YES    0:00:06
       22   1    9    0  -244.71577899   -0.23E-01*  0.18E+00* 124 130 1  0.58E-01*  0.55   2.50    QN   YES    0:00:07
       23   1    9    0  -244.75399801   -0.38E-01*  0.23E+00* 124 130 1  0.81E-01*  0.44   1.84    QN   YES    0:00:06
       24   1   10    0  -244.79318742   -0.39E-01* -0.19E+00* 117 134 1  0.94E-01*  0.32   1.40    QN   YES    0:00:04
       25   1   10    0  -244.83061567   -0.37E-01*  0.16E+00* 124 132 1  0.11E+00*  0.27   1.50    QN   YES    0:00:03
       26   1   10    0  -244.87558584   -0.45E-01*  0.12E+00* 124 132 1  0.11E+00*  0.29   1.61    QN   YES    0:00:03
       27   1    9    0  -244.94551943   -0.70E-01* -0.88E-01  124 132 1  0.89E-01*  0.32   2.26    QN   YES    0:00:03
       28   1    9    0  -245.03377683   -0.88E-01* -0.55E-01  123 147 1 -0.57E-01*  0.34   1.89    LS   YES    0:00:04
       29   1    9    0  -245.05836942   -0.25E-01*  0.38E-01  127 136 1 -0.45E-01*  0.37   1.43    QN   YES    0:00:03
       30   1    9    0  -245.07925670   -0.21E-01* -0.43E-01  127 136 1 -0.27E-01*  0.36   1.65    QN   YES    0:00:03
       31   1    8    0  -245.08873671   -0.95E-02*  0.32E-01  127 136 1 -0.11E-01*  0.38   1.05    QN   YES    0:00:03
       32   1    8    0  -245.09131140   -0.26E-02* -0.19E-01  123 131 1  0.73E-02*  0.38   1.15    QN   YES    0:00:04
       33   1    8    0  -245.09250540   -0.12E-02* -0.35E-01  129 133 1  0.55E-02*  0.38   2.09    QN   YES    0:00:07
       34   1    8    0  -245.09357340   -0.11E-02* -0.30E-01  129 133 1  0.43E-02*  0.38   1.55    QN   YES    0:00:07
       35   1    8    0  -245.09408355   -0.51E-03* -0.35E-01  127 136 1  0.36E-02*  0.38   1.99    QN   YES    0:00:07
       36   1    8    0  -245.09452883   -0.45E-03* -0.31E-01  123 131 1 -0.35E-02*  0.38   1.83    QN   YES    0:00:07
       37   1    7    0  -245.09483204   -0.30E-03*  0.23E-01  123 131 1 -0.33E-02*  0.39   1.78    QN   YES    0:00:05
       38   1    7    0  -245.09502087   -0.19E-03*  0.16E-01  123 133 1 -0.22E-02*  0.39   1.70    QN   YES    0:00:06
       39   1    7    0  -245.09512546   -0.10E-03* -0.94E-02  123 133 1 -0.19E-02*  0.39   1.64    QN   YES    0:00:05
       40   1    7    0  -245.09517847   -0.53E-04*  0.55E-02  123 133 1 -0.12E-02*  0.39   1.59    QN   YES    0:00:06
       41   1    6    0  -245.09520447   -0.26E-04*  0.41E-02  117 133 1 -0.75E-03*  0.39   1.63    QN   YES    0:00:06
       42   1    7    0  -245.09521908   -0.15E-04*  0.41E-02  117 133 1 -0.53E-03*  0.39   1.79    QN   YES    0:00:06
       43   1    6    0  -245.09522954   -0.10E-04* -0.41E-02  127 136 1  0.44E-03*  0.39   1.81    QN   YES    0:00:06
       44   1    6    0  -245.09523733   -0.78E-05*  0.31E-02  124 146 1  0.36E-03*  0.39   1.73    QN   YES    0:00:06
       45   1    6    0  -245.09524225   -0.49E-05* -0.20E-02  124 146 1  0.26E-03*  0.39   1.67    QN   YES    0:00:06
       46   1    6    0  -245.09524467   -0.24E-05* -0.29E-02  117 133 1  0.23E-03*  0.39   2.50    LS   YES    0:00:06
       47   1    6    0  -245.09524393    0.75E-06* -0.13E-02  127 136 1 -0.29E-03*  0.39   0.36    LS   YES    0:00:07
       48   1    6    0  -245.09524497   -0.10E-05*  0.94E-03  117 133 1  0.23E-03*  0.39   1.34    QN   YES    0:00:05
       49   1    6    0  -245.09524579   -0.82E-06*  0.14E-02  123 133 1  0.16E-03*  0.39   2.50    LS   YES    0:00:07
       50   1    6    0  -245.09524592   -0.13E-06* -0.11E-02  123 133 1  0.14E-03*  0.39   0.58    QN   YES    0:00:06
       51   1    5    0  -245.09524628   -0.36E-06* -0.16E-02  123 133 1  0.12E-03*  0.39   2.50    LS   YES    0:00:07
       52   1    6    0  -245.09524615    0.13E-06* -0.74E-03  117 133 1  0.94E-04   0.39   0.34    LS   YES    0:00:06
       53   1    5    0  -245.09524631   -0.16E-06*  0.26E-03  123 133 1  0.99E-04   0.39   1.31    QN   YES    0:00:07
       54   1    5    0  -245.09524644   -0.13E-06*  0.40E-03  123 133 1  0.79E-04   0.39   2.50    LS   YES    0:00:06
       55   1    5    0  -245.09524652   -0.79E-07*  0.38E-03  123 134 1 -0.63E-04   0.39   0.89    QN   YES    0:00:07
       56   1    5    0  -245.09524659   -0.70E-07*  0.49E-03  123 134 1 -0.48E-04   0.39   1.70    QN   YES    0:00:06
       57   1    5    0  -245.09524662   -0.40E-07*  0.73E-03  131 133 1 -0.29E-04   0.39   2.50    LS   YES    0:00:07
       58   1    5    0  -245.09524658    0.45E-07*  0.41E-03   96 133 1  0.59E-04   0.39   0.20    LS   YES    0:00:07
       59   1    5    0  -245.09524664   -0.57E-07*  0.19E-03   96 133 1  0.35E-04   0.39   1.15    QN   YES    0:00:07
       60   1    5    0  -245.09524664   -0.32E-08   0.16E-03  131 133 1 -0.25E-04   0.39   0.35    QN   YES    0:00:07
      Convergence after 60 iterations
       61   1    5    0  -245.09524666   -0.20E-07*  0.16E-03  131 133 1 -0.19E-04   0.39   0.35    QN   YES    0:00:07
 
      ************************************************************************************************************************
                                                      Wave function printout:
                       occupation of active orbitals, and spin coupling of open shells (u,d: Spin up or down)
      ************************************************************************************************************************
 
      Note: transformation to natural orbitals
      has been made, which may change the order of the CSFs.
 
      printout of CI-coefficients larger than  0.05 for root  1
      energy=  -31245.119267
      conf/sym  1111     Coeff  Weight
             1  uuu0   0.07771 0.00604
             2  uu0u   0.91935 0.84520
             3  u0uu   0.16829 0.02832
             4  0uuu  -0.34705 0.12044
 
      printout of CI-coefficients larger than  0.05 for root  2
      energy=  -31245.109978
      conf/sym  1111     Coeff  Weight
             1  uuu0  -0.80391 0.64628
             3  u0uu   0.58063 0.33714
             4  0uuu   0.12839 0.01648
 
      printout of CI-coefficients larger than  0.05 for root  3
      energy=  -31245.081052
      conf/sym  1111     Coeff  Weight
             1  uuu0   0.58297 0.33986
             3  u0uu   0.72980 0.53261
             4  0uuu   0.35369 0.12510
 
      printout of CI-coefficients larger than  0.05 for root  4
      energy=  -31245.070690
      conf/sym  1111     Coeff  Weight
             1  uuu0  -0.08847 0.00783
             2  uu0u   0.39021 0.15226
             3  u0uu  -0.31926 0.10193
             4  0uuu   0.85906 0.73798
 
      Natural orbitals and occupation numbers for root  1
      sym 1:   1.000000   1.000000   0.000000   1.000000
 
      Natural orbitals and occupation numbers for root  2
      sym 1:   1.000000   1.000000   1.000000   0.000000
 
      Natural orbitals and occupation numbers for root  3
      sym 1:   1.000000   0.000000   1.000000   1.000000
 
      Natural orbitals and occupation numbers for root  4
      sym 1:   0.000000   1.000000   1.000000   1.000000
 
      ************************************************************************************************************************
      *                                                                                                                      *
      *                                                    Final results                                                     *
      *                                                                                                                      *
      ************************************************************************************************************************
 
 
++    Wave function specifications:
      -----------------------------
 
      Number of closed shell electrons         254
      Number of electrons in active shells       3
      Max number of holes in RAS1 space          0
      Max nr of electrons in RAS3 space          0
      Number of inactive orbitals              127
      Number of active orbitals                  4
      Number of secondary orbitals              46
      Spin quantum number                      1.5
      State symmetry                             1
--
 
++    Orbital specifications:
      -----------------------
 
      Symmetry species                           1
                                                 a
      Frozen orbitals                            0
      Inactive orbitals                        127
      Active orbitals                            4
      RAS1 orbitals                              0
      RAS2 orbitals                              4
      RAS3 orbitals                              0
      Secondary orbitals                        46
      Deleted orbitals                           0
      Number of basis functions                177
--
 
++    CI expansion specifications:
      ----------------------------
 
      Number of CSFs                             4
      Number of determinants                     4
      Number of root(s) required                 4
      CI roots used                              1     2     3     4
      weights                                0.250 0.250 0.250 0.250
      highest root included in the CI            4
      Root passed to geometry opt.               4
--
 
++    Final optimization conditions:
      ------------------------------
 
      Average CI energy                          -31245.09524666
      RASSCF energy for state  4                 -31245.07068995
      Super-CI energy                                -0.00000000
      RASSCF energy change                           -0.00000002
      Max change in MO coefficients               0.142E-03
      Max non-diagonal density matrix element     0.164E-03
      Maximum BLB matrix element                 -0.187E-04
      (orbital pair 131, 133 in symmetry   1)
      Norm of electronic gradient            0.565E-01
--
 
 
      Final state energy(ies):
      ------------------------
 
::    RASSCF root number  1 Total energy: -31245.11926657
::    RASSCF root number  2 Total energy: -31245.10997819
::    RASSCF root number  3 Total energy: -31245.08105193
::    RASSCF root number  4 Total energy: -31245.07068995
 
++    Molecular orbitals:
      -------------------
 
      Pseudonatural active orbitals and approximate occupation numbers
 
 
 
 
      Molecular orbitals for symmetry species 1: a  
 
 
      Orbital                1         2         3         4         5         6         7         8         9        10
      Energy        -4488.4783 -854.2122 -711.9223 -711.9206 -711.9202 -220.5786 -180.5540 -180.5535 -180.5523 -143.8152
      Occ. No.          2.0000    2.0000    2.0000    2.0000    2.0000    2.0000    2.0000    2.0000    2.0000    2.0000
 
    1 C1     1s        -0.0000   -0.0000   -0.0000   -0.0000    0.0000   -0.0000   -0.0000   -0.0000    0.0000   -0.0000
    2 C1     2s        -0.0000   -0.0000   -0.0000   -0.0000    0.0000   -0.0000   -0.0000   -0.0000    0.0000   -0.0000
    3 C1     2px        0.0000    0.0000   -0.0000   -0.0000    0.0000    0.0000   -0.0000   -0.0000    0.0000   -0.0000
    4 C1     2py        0.0000    0.0000   -0.0000   -0.0000   -0.0000    0.0000   -0.0000   -0.0000   -0.0000   -0.0000
    5 C1     2pz        0.0000    0.0000   -0.0000    0.0000    0.0000    0.0000   -0.0000    0.0000    0.0000    0.0000
    6 S2     1s        -0.0000   -0.0000   -0.0000    0.0000   -0.0000   -0.0000   -0.0000    0.0000   -0.0000   -0.0000
    7 S2     2s        -0.0000   -0.0000   -0.0000    0.0000   -0.0000   -0.0000   -0.0000    0.0000   -0.0000   -0.0000
    8 S2     3s        -0.0000   -0.0000   -0.0000    0.0000   -0.0000   -0.0000   -0.0000    0.0000   -0.0000    0.0000
    9 S2     2px       -0.0000   -0.0000    0.0000   -0.0000   -0.0000   -0.0000    0.0000   -0.0000   -0.0000    0.0000
   10 S2     3px       -0.0000   -0.0000    0.0000   -0.0000    0.0000   -0.0000    0.0000   -0.0000    0.0000    0.0000
   11 S2     2py       -0.0000   -0.0000    0.0000   -0.0000    0.0000   -0.0000    0.0000   -0.0000    0.0000    0.0000
   12 S2     3py       -0.0000   -0.0000    0.0000   -0.0000   -0.0000   -0.0000    0.0000   -0.0000   -0.0000    0.0000
   13 S2     2pz        0.0000    0.0000    0.0000    0.0000    0.0000    0.0000    0.0000    0.0000    0.0000    0.0000
   14 S2     3pz        0.0000    0.0000    0.0000    0.0000    0.0000    0.0000    0.0000    0.0000    0.0000    0.0000
   15 O3     1s         0.0000    0.0000    0.0000    0.0000   -0.0000    0.0000   -0.0000    0.0000   -0.0000    0.0000
   16 O3     2s         0.0000    0.0000    0.0000    0.0000   -0.0000    0.0000    0.0000    0.0000   -0.0000    0.0000
   17 O3     2px       -0.0000   -0.0000   -0.0000    0.0000   -0.0000   -0.0000   -0.0000    0.0000   -0.0000   -0.0000
   18 O3     2py       -0.0000   -0.0000    0.0000    0.0000   -0.0000   -0.0000    0.0000    0.0000   -0.0000    0.0000
   19 O3     2pz        0.0000    0.0000    0.0000    0.0000   -0.0000    0.0000    0.0000    0.0000    0.0000    0.0000
   20 PU4    1s         1.0000   -0.0000    0.0000    0.0000   -0.0000    0.0000   -0.0000   -0.0000    0.0000    0.0000
   21 PU4    2s         0.0000    1.0000    0.0000    0.0000   -0.0000   -0.0000    0.0000    0.0000   -0.0000    0.0000
   22 PU4    3s        -0.0000    0.0000   -0.0000   -0.0000    0.0000    1.0000    0.0000    0.0000   -0.0000    0.0000
   23 PU4    4s         0.0000   -0.0000    0.0000   -0.0000   -0.0000   -0.0000   -0.0000   -0.0000    0.0000    0.0000
   24 PU4    5s        -0.0000    0.0000   -0.0000   -0.0000    0.0000   -0.0000    0.0000    0.0000   -0.0000   -0.0000
   25 PU4    6s         0.0000   -0.0000   -0.0000   -0.0000   -0.0000    0.0000   -0.0000   -0.0000    0.0000    0.0000
   26 PU4    7s        -0.0000    0.0000   -0.0000   -0.0000   -0.0000   -0.0000   -0.0000   -0.0000   -0.0000   -0.0000
   27 PU4    2px       -0.0000   -0.0000    0.0006    0.4140   -0.9103    0.0000    0.0000   -0.0000    0.0000    0.0000
   28 PU4    3px        0.0000   -0.0000   -0.0000    0.0000   -0.0000   -0.0000   -0.0002    0.4140   -0.9103    0.0000
   29 PU4    4px       -0.0000    0.0000    0.0000   -0.0000    0.0000   -0.0000   -0.0000   -0.0000    0.0000   -0.0000
   30 PU4    5px        0.0000   -0.0000   -0.0000    0.0000   -0.0000    0.0000    0.0000   -0.0000    0.0000    0.0000
   31 PU4    6px       -0.0000   -0.0000    0.0000   -0.0000    0.0000   -0.0000   -0.0000   -0.0000    0.0000   -0.0000
   32 PU4    7px       -0.0000   -0.0000    0.0000   -0.0000   -0.0000   -0.0000    0.0000    0.0000   -0.0000    0.0000
   33 PU4    2py        0.0000    0.0000    0.0009    0.9103    0.4140   -0.0000    0.0000   -0.0000   -0.0000    0.0000
   34 PU4    3py       -0.0000    0.0000   -0.0000    0.0000    0.0000    0.0000   -0.0006    0.9103    0.4140    0.0000
   35 PU4    4py        0.0000   -0.0000    0.0000   -0.0000   -0.0000    0.0000   -0.0000   -0.0000   -0.0000   -0.0000
   36 PU4    5py       -0.0000    0.0000   -0.0000    0.0000    0.0000   -0.0000    0.0000   -0.0000   -0.0000   -0.0000
   37 PU4    6py        0.0000    0.0000    0.0000   -0.0000   -0.0000    0.0000   -0.0000   -0.0000   -0.0000   -0.0000
   38 PU4    7py        0.0000    0.0000    0.0000   -0.0000    0.0000    0.0000    0.0000    0.0000    0.0000   -0.0000
   39 PU4    2pz       -0.0000   -0.0000    1.0000   -0.0010    0.0002    0.0000   -0.0000    0.0000   -0.0000    0.0000
   40 PU4    3pz        0.0000   -0.0000    0.0000   -0.0000    0.0000   -0.0000    1.0000    0.0006    0.0001    0.0000
   41 PU4    4pz       -0.0000    0.0000   -0.0000    0.0000   -0.0000   -0.0000   -0.0000   -0.0000   -0.0000   -0.0000
   42 PU4    5pz        0.0000   -0.0000    0.0000   -0.0000    0.0000    0.0000   -0.0000    0.0000   -0.0000    0.0000
   43 PU4    6pz       -0.0000    0.0000   -0.0000   -0.0000    0.0000   -0.0000    0.0000   -0.0000    0.0000   -0.0000
   44 PU4    7pz        0.0000    0.0000    0.0000   -0.0000    0.0000    0.0000    0.0000   -0.0000    0.0000   -0.0000
   45 PU4    3d2-      -0.0000    0.0000   -0.0000   -0.0000   -0.0000    0.0000    0.0000   -0.0000   -0.0000   -0.0038
   46 PU4    4d2-       0.0000   -0.0000    0.0000    0.0000    0.0000    0.0000   -0.0000   -0.0000   -0.0000    0.0000
   47 PU4    5d2-      -0.0000    0.0000   -0.0000   -0.0000   -0.0000   -0.0000    0.0000    0.0000    0.0000   -0.0000
   48 PU4    6d2-      -0.0000   -0.0000   -0.0000    0.0000   -0.0000   -0.0000   -0.0000   -0.0000   -0.0000    0.0000
   49 PU4    3d1-      -0.0000   -0.0000    0.0000   -0.0000   -0.0000   -0.0000    0.0000   -0.0000   -0.0000    0.9102
   50 PU4    4d1-       0.0000    0.0000   -0.0000    0.0000    0.0000   -0.0000    0.0000   -0.0000   -0.0000   -0.0000
   51 PU4    5d1-      -0.0000   -0.0000    0.0000   -0.0000   -0.0000   -0.0000   -0.0000    0.0000    0.0000    0.0000
   52 PU4    6d1-       0.0000    0.0000   -0.0000   -0.0000   -0.0000    0.0000    0.0000   -0.0000   -0.0000   -0.0000
   53 PU4    3d0        0.0000    0.0000   -0.0000    0.0000   -0.0000    0.0000   -0.0000    0.0000   -0.0000    0.0035
   54 PU4    4d0       -0.0000   -0.0000    0.0000   -0.0000    0.0000    0.0000   -0.0000    0.0000   -0.0000   -0.0000
   55 PU4    5d0        0.0000    0.0000   -0.0000    0.0000   -0.0000   -0.0000    0.0000   -0.0000    0.0000    0.0000
   56 PU4    6d0        0.0000   -0.0000   -0.0000   -0.0000    0.0000    0.0000   -0.0000   -0.0000   -0.0000   -0.0000
   57 PU4    3d1+      -0.0000   -0.0000   -0.0000   -0.0000    0.0000   -0.0000   -0.0000   -0.0000    0.0000    0.4141
   58 PU4    4d1+       0.0000    0.0000    0.0000    0.0000   -0.0000    0.0000   -0.0000   -0.0000    0.0000   -0.0000
   59 PU4    5d1+      -0.0000    0.0000   -0.0000   -0.0000    0.0000   -0.0000    0.0000    0.0000   -0.0000    0.0000
   60 PU4    6d1+       0.0000    0.0000   -0.0000    0.0000   -0.0000    0.0000   -0.0000    0.0000    0.0000   -0.0000
   61 PU4    3d2+       0.0000   -0.0000   -0.0000   -0.0000    0.0000   -0.0000    0.0000   -0.0000    0.0000    0.0035
   62 PU4    4d2+      -0.0000    0.0000    0.0000    0.0000   -0.0000   -0.0000   -0.0000   -0.0000    0.0000   -0.0000
   63 PU4    5d2+       0.0000   -0.0000    0.0000    0.0000    0.0000    0.0000    0.0000    0.0000   -0.0000    0.0000
   64 PU4    6d2+       0.0000    0.0000    0.0000    0.0000    0.0000    0.0000    0.0000    0.0000    0.0000   -0.0000
   65 PU4    4f3-       0.0000    0.0000    0.0000   -0.0000   -0.0000   -0.0000    0.0000   -0.0000   -0.0000   -0.0000
   66 PU4    5f3-      -0.0000   -0.0000   -0.0000    0.0000    0.0000   -0.0000   -0.0000    0.0000    0.0000    0.0000
   67 PU4    4f2-       0.0000   -0.0000    0.0000   -0.0000   -0.0000   -0.0000    0.0000   -0.0000    0.0000   -0.0000
   68 PU4    5f2-      -0.0000    0.0000   -0.0000   -0.0000    0.0000    0.0000   -0.0000    0.0000   -0.0000    0.0000
   69 PU4    4f1-      -0.0000    0.0000   -0.0000    0.0000    0.0000    0.0000   -0.0000    0.0000    0.0000   -0.0000
   70 PU4    5f1-      -0.0000   -0.0000    0.0000   -0.0000   -0.0000   -0.0000    0.0000   -0.0000   -0.0000    0.0000
   71 PU4    4f0       -0.0000   -0.0000    0.0000    0.0000    0.0000   -0.0000   -0.0000    0.0000    0.0000    0.0000
   72 PU4    5f0        0.0000    0.0000    0.0000   -0.0000    0.0000    0.0000    0.0000   -0.0000    0.0000   -0.0000
   73 PU4    4f1+      -0.0000   -0.0000   -0.0000    0.0000   -0.0000   -0.0000   -0.0000    0.0000   -0.0000   -0.0000
   74 PU4    5f1+      -0.0000    0.0000    0.0000   -0.0000    0.0000   -0.0000    0.0000   -0.0000    0.0000    0.0000
   75 PU4    4f2+       0.0000   -0.0000   -0.0000    0.0000   -0.0000   -0.0000   -0.0000    0.0000    0.0000   -0.0000
   76 PU4    5f2+       0.0000    0.0000    0.0000    0.0000    0.0000    0.0000    0.0000   -0.0000   -0.0000    0.0000
   77 PU4    4f3+      -0.0000   -0.0000    0.0000   -0.0000    0.0000   -0.0000    0.0000   -0.0000    0.0000   -0.0000
   78 PU4    5f3+       0.0000    0.0000   -0.0000    0.0000   -0.0000    0.0000   -0.0000    0.0000   -0.0000    0.0000
   79 O5     1s         0.0000    0.0000   -0.0000   -0.0000    0.0000    0.0000    0.0000   -0.0000    0.0000    0.0000
   80 O5     2s         0.0000    0.0000   -0.0000   -0.0000    0.0000    0.0000   -0.0000   -0.0000    0.0000    0.0000
   81 O5     2px        0.0000    0.0000   -0.0000    0.0000   -0.0000    0.0000   -0.0000    0.0000   -0.0000    0.0000
   82 O5     2py        0.0000    0.0000    0.0000    0.0000   -0.0000    0.0000    0.0000    0.0000   -0.0000   -0.0000
   83 O5     2pz       -0.0000   -0.0000    0.0000    0.0000   -0.0000   -0.0000    0.0000    0.0000    0.0000   -0.0000
   84 S6     1s        -0.0000   -0.0000    0.0000   -0.0000   -0.0000   -0.0000    0.0000   -0.0000   -0.0000   -0.0000
   85 S6     2s        -0.0000   -0.0000    0.0000   -0.0000   -0.0000   -0.0000    0.0000   -0.0000   -0.0000   -0.0000
   86 S6     3s        -0.0000   -0.0000    0.0000   -0.0000   -0.0000   -0.0000    0.0000   -0.0000   -0.0000   -0.0000
   87 S6     2px        0.0000    0.0000    0.0000   -0.0000   -0.0000    0.0000    0.0000   -0.0000   -0.0000   -0.0000
   88 S6     3px        0.0000    0.0000    0.0000   -0.0000    0.0000    0.0000    0.0000   -0.0000    0.0000   -0.0000
   89 S6     2py        0.0000    0.0000    0.0000   -0.0000    0.0000    0.0000    0.0000   -0.0000    0.0000   -0.0000
   90 S6     3py        0.0000    0.0000    0.0000   -0.0000   -0.0000    0.0000    0.0000   -0.0000   -0.0000   -0.0000
   91 S6     2pz       -0.0000   -0.0000    0.0000    0.0000    0.0000   -0.0000    0.0000    0.0000    0.0000   -0.0000
   92 S6     3pz       -0.0000   -0.0000    0.0000    0.0000    0.0000   -0.0000    0.0000    0.0000    0.0000   -0.0000
   93 C7     1s        -0.0000   -0.0000    0.0000    0.0000   -0.0000   -0.0000    0.0000    0.0000   -0.0000   -0.0000
   94 C7     2s        -0.0000   -0.0000    0.0000    0.0000   -0.0000   -0.0000    0.0000    0.0000   -0.0000   -0.0000
   95 C7     2px       -0.0000   -0.0000   -0.0000   -0.0000    0.0000   -0.0000   -0.0000   -0.0000    0.0000    0.0000
   96 C7     2py       -0.0000   -0.0000   -0.0000   -0.0000   -0.0000   -0.0000   -0.0000   -0.0000   -0.0000    0.0000
   97 C7     2pz       -0.0000   -0.0000   -0.0000    0.0000    0.0000   -0.0000   -0.0000    0.0000    0.0000   -0.0000
   98 O8     1s         0.0000    0.0000    0.0000    0.0000    0.0000    0.0000   -0.0000    0.0000    0.0000    0.0000
   99 O8     2s         0.0000    0.0000    0.0000    0.0000    0.0000    0.0000    0.0000    0.0000    0.0000    0.0000
  100 O8     2px        0.0000    0.0000    0.0000   -0.0000   -0.0000    0.0000    0.0000   -0.0000   -0.0000    0.0000
  101 O8     2py       -0.0000   -0.0000    0.0000    0.0000    0.0000   -0.0000   -0.0000    0.0000    0.0000   -0.0000
  102 O8     2pz        0.0000    0.0000    0.0000    0.0000    0.0000    0.0000    0.0000    0.0000   -0.0000    0.0000
  103 O9     1s         0.0000    0.0000   -0.0000   -0.0000   -0.0000    0.0000    0.0000   -0.0000   -0.0000    0.0000
  104 O9     2s         0.0000    0.0000   -0.0000   -0.0000   -0.0000    0.0000   -0.0000   -0.0000   -0.0000    0.0000
  105 O9     2px       -0.0000   -0.0000    0.0000   -0.0000   -0.0000   -0.0000    0.0000   -0.0000   -0.0000   -0.0000
  106 O9     2py        0.0000    0.0000    0.0000    0.0000    0.0000    0.0000   -0.0000    0.0000    0.0000    0.0000
  107 O9     2pz       -0.0000   -0.0000    0.0000    0.0000    0.0000   -0.0000    0.0000    0.0000   -0.0000   -0.0000
  108 O10    1s         0.0000    0.0000    0.0000   -0.0000   -0.0000    0.0000    0.0000   -0.0000   -0.0000    0.0000
  109 O10    2s        -0.0000    0.0000    0.0000   -0.0000    0.0000   -0.0000    0.0000   -0.0000    0.0000    0.0000
  110 O10    2px       -0.0000   -0.0000   -0.0000   -0.0000    0.0000   -0.0000   -0.0000   -0.0000    0.0000   -0.0000
  111 O10    2py       -0.0000   -0.0000   -0.0000   -0.0000   -0.0000   -0.0000   -0.0000   -0.0000   -0.0000   -0.0000
  112 O10    2pz       -0.0000   -0.0000    0.0000   -0.0000    0.0000   -0.0000    0.0000   -0.0000    0.0000    0.0000
  113 O11    1s         0.0000    0.0000   -0.0000    0.0000   -0.0000    0.0000   -0.0000    0.0000   -0.0000    0.0000
  114 O11    2s        -0.0000    0.0000   -0.0000    0.0000   -0.0000   -0.0000   -0.0000    0.0000   -0.0000    0.0000
  115 O11    2px        0.0000    0.0000   -0.0000   -0.0000    0.0000    0.0000   -0.0000   -0.0000    0.0000    0.0000
  116 O11    2py        0.0000    0.0000   -0.0000   -0.0000   -0.0000    0.0000   -0.0000   -0.0000   -0.0000    0.0000
  117 O11    2pz        0.0000    0.0000    0.0000   -0.0000    0.0000    0.0000    0.0000   -0.0000    0.0000   -0.0000
  118 C12    1s        -0.0000   -0.0000   -0.0000   -0.0000   -0.0000   -0.0000   -0.0000   -0.0000   -0.0000    0.0000
  119 C12    2s        -0.0000   -0.0000    0.0000   -0.0000   -0.0000   -0.0000    0.0000   -0.0000   -0.0000    0.0000
  120 C12    2px        0.0000    0.0000   -0.0000    0.0000    0.0000    0.0000   -0.0000    0.0000    0.0000    0.0000
  121 C12    2py        0.0000    0.0000   -0.0000    0.0000   -0.0000    0.0000   -0.0000    0.0000   -0.0000    0.0000
  122 C12    2pz        0.0000    0.0000    0.0000    0.0000    0.0000    0.0000    0.0000    0.0000    0.0000    0.0000
  123 C13    1s         0.0000    0.0000    0.0000    0.0000    0.0000    0.0000    0.0000    0.0000    0.0000    0.0000
  124 C13    2s         0.0000    0.0000    0.0000    0.0000    0.0000    0.0000    0.0000    0.0000    0.0000   -0.0000
  125 C13    2px        0.0000    0.0000    0.0000    0.0000    0.0000    0.0000    0.0000    0.0000    0.0000   -0.0000
  126 C13    2py        0.0000    0.0000    0.0000    0.0000   -0.0000    0.0000    0.0000    0.0000   -0.0000   -0.0000
  127 C13    2pz        0.0000    0.0000   -0.0000    0.0000    0.0000    0.0000   -0.0000    0.0000    0.0000   -0.0000
  128 C14    1s         0.0000    0.0000    0.0000    0.0000   -0.0000    0.0000    0.0000    0.0000   -0.0000   -0.0000
  129 C14    2s         0.0000    0.0000    0.0000    0.0000   -0.0000    0.0000    0.0000    0.0000   -0.0000   -0.0000
  130 C14    2px        0.0000    0.0000    0.0000    0.0000    0.0000    0.0000    0.0000    0.0000    0.0000   -0.0000
  131 C14    2py        0.0000    0.0000    0.0000    0.0000   -0.0000    0.0000    0.0000    0.0000   -0.0000   -0.0000
  132 C14    2pz        0.0000    0.0000    0.0000    0.0000    0.0000    0.0000    0.0000    0.0000    0.0000   -0.0000
  133 C15    1s        -0.0000   -0.0000   -0.0000   -0.0000    0.0000   -0.0000   -0.0000   -0.0000    0.0000    0.0000
  134 C15    2s         0.0000    0.0000   -0.0000   -0.0000    0.0000    0.0000   -0.0000   -0.0000    0.0000    0.0000
  135 C15    2px        0.0000    0.0000    0.0000    0.0000    0.0000    0.0000    0.0000    0.0000    0.0000    0.0000
  136 C15    2py        0.0000    0.0000    0.0000    0.0000   -0.0000    0.0000    0.0000    0.0000   -0.0000    0.0000
  137 C15    2pz        0.0000    0.0000    0.0000   -0.0000   -0.0000    0.0000    0.0000    0.0000   -0.0000    0.0000
  138 C16    1s         0.0000    0.0000    0.0000    0.0000   -0.0000    0.0000    0.0000    0.0000   -0.0000   -0.0000
  139 C16    2s         0.0000    0.0000    0.0000    0.0000   -0.0000    0.0000    0.0000    0.0000   -0.0000   -0.0000
  140 C16    2px       -0.0000   -0.0000    0.0000    0.0000    0.0000   -0.0000    0.0000    0.0000    0.0000   -0.0000
  141 C16    2py       -0.0000   -0.0000    0.0000    0.0000   -0.0000   -0.0000    0.0000    0.0000   -0.0000   -0.0000
  142 C16    2pz       -0.0000   -0.0000   -0.0000   -0.0000    0.0000   -0.0000   -0.0000   -0.0000    0.0000    0.0000
  143 H17    1s         0.0000    0.0000   -0.0000    0.0000    0.0000    0.0000   -0.0000    0.0000    0.0000   -0.0000
  144 H18    1s         0.0000    0.0000    0.0000    0.0000    0.0000    0.0000    0.0000    0.0000    0.0000   -0.0000
  145 H19    1s         0.0000    0.0000    0.0000    0.0000    0.0000    0.0000    0.0000    0.0000    0.0000   -0.0000
  146 H20    1s         0.0000    0.0000    0.0000    0.0000   -0.0000    0.0000    0.0000    0.0000   -0.0000   -0.0000
  147 H21    1s        -0.0000   -0.0000   -0.0000   -0.0000    0.0000   -0.0000   -0.0000   -0.0000    0.0000    0.0000
  148 C22    1s        -0.0000   -0.0000    0.0000    0.0000    0.0000   -0.0000    0.0000    0.0000    0.0000    0.0000
  149 C22    2s        -0.0000   -0.0000   -0.0000    0.0000    0.0000   -0.0000   -0.0000    0.0000    0.0000    0.0000
  150 C22    2px       -0.0000   -0.0000   -0.0000    0.0000    0.0000   -0.0000   -0.0000    0.0000    0.0000   -0.0000
  151 C22    2py       -0.0000   -0.0000   -0.0000    0.0000   -0.0000   -0.0000   -0.0000    0.0000   -0.0000   -0.0000
  152 C22    2pz       -0.0000   -0.0000    0.0000    0.0000    0.0000   -0.0000    0.0000    0.0000    0.0000   -0.0000
  153 C23    1s         0.0000    0.0000   -0.0000   -0.0000   -0.0000    0.0000   -0.0000   -0.0000   -0.0000    0.0000
  154 C23    2s         0.0000    0.0000   -0.0000   -0.0000   -0.0000    0.0000   -0.0000   -0.0000   -0.0000   -0.0000
  155 C23    2px       -0.0000   -0.0000    0.0000    0.0000    0.0000   -0.0000    0.0000    0.0000    0.0000    0.0000
  156 C23    2py       -0.0000   -0.0000    0.0000    0.0000   -0.0000   -0.0000    0.0000    0.0000   -0.0000    0.0000
  157 C23    2pz       -0.0000   -0.0000   -0.0000    0.0000    0.0000   -0.0000   -0.0000    0.0000    0.0000    0.0000
  158 C24    1s         0.0000    0.0000   -0.0000   -0.0000    0.0000    0.0000   -0.0000   -0.0000    0.0000   -0.0000
  159 C24    2s         0.0000    0.0000   -0.0000   -0.0000    0.0000    0.0000   -0.0000   -0.0000    0.0000   -0.0000
  160 C24    2px       -0.0000   -0.0000    0.0000    0.0000    0.0000   -0.0000    0.0000    0.0000    0.0000    0.0000
  161 C24    2py       -0.0000   -0.0000    0.0000    0.0000   -0.0000   -0.0000    0.0000    0.0000   -0.0000    0.0000
  162 C24    2pz       -0.0000   -0.0000    0.0000    0.0000    0.0000   -0.0000    0.0000    0.0000    0.0000    0.0000
  163 C25    1s        -0.0000   -0.0000    0.0000    0.0000   -0.0000   -0.0000    0.0000    0.0000   -0.0000    0.0000
  164 C25    2s         0.0000    0.0000    0.0000    0.0000   -0.0000    0.0000    0.0000    0.0000   -0.0000    0.0000
  165 C25    2px       -0.0000   -0.0000    0.0000    0.0000    0.0000   -0.0000    0.0000    0.0000    0.0000   -0.0000
  166 C25    2py       -0.0000   -0.0000    0.0000    0.0000   -0.0000   -0.0000    0.0000    0.0000   -0.0000   -0.0000
  167 C25    2pz       -0.0000   -0.0000    0.0000   -0.0000   -0.0000   -0.0000    0.0000    0.0000   -0.0000   -0.0000
  168 C26    1s         0.0000    0.0000   -0.0000   -0.0000    0.0000    0.0000   -0.0000   -0.0000    0.0000   -0.0000
  169 C26    2s         0.0000    0.0000   -0.0000   -0.0000    0.0000    0.0000   -0.0000   -0.0000    0.0000   -0.0000
  170 C26    2px        0.0000    0.0000    0.0000    0.0000    0.0000    0.0000    0.0000    0.0000    0.0000    0.0000
  171 C26    2py        0.0000    0.0000    0.0000    0.0000   -0.0000    0.0000    0.0000    0.0000   -0.0000    0.0000
  172 C26    2pz        0.0000    0.0000   -0.0000   -0.0000    0.0000    0.0000   -0.0000   -0.0000    0.0000   -0.0000
  173 H27    1s         0.0000    0.0000    0.0000   -0.0000   -0.0000    0.0000    0.0000   -0.0000   -0.0000   -0.0000
  174 H28    1s         0.0000    0.0000   -0.0000   -0.0000   -0.0000    0.0000   -0.0000   -0.0000   -0.0000   -0.0000
  175 H29    1s         0.0000    0.0000   -0.0000   -0.0000   -0.0000    0.0000   -0.0000   -0.0000   -0.0000   -0.0000
  176 H30    1s         0.0000    0.0000   -0.0000   -0.0000    0.0000    0.0000   -0.0000   -0.0000    0.0000   -0.0000
  177 H31    1s        -0.0000   -0.0000    0.0000    0.0000   -0.0000   -0.0000    0.0000    0.0000   -0.0000    0.0000
 
 
      Orbital               11        12        13        14        15        16        17        18        19        20
      Energy         -143.8146 -143.8146 -143.8139 -143.8135  -92.4145  -92.4145  -58.7278  -45.3849  -45.3810  -45.3788
      Occ. No.          2.0000    2.0000    2.0000    2.0000    2.0000    2.0000    2.0000    2.0000    2.0000    2.0000
 
    1 C1     1s        -0.0000    0.0000    0.0000   -0.0000   -0.0000    0.0000    0.0000   -0.0000   -0.0000   -0.0000
    2 C1     2s         0.0000    0.0000    0.0000   -0.0000   -0.0000    0.0000    0.0000   -0.0000   -0.0000   -0.0000
    3 C1     2px       -0.0000   -0.0000    0.0000   -0.0000    0.0000    0.0000    0.0000   -0.0000   -0.0000   -0.0000
    4 C1     2py        0.0000   -0.0000    0.0000    0.0000    0.0000    0.0000    0.0000   -0.0000   -0.0000    0.0000
    5 C1     2pz       -0.0000   -0.0000    0.0000   -0.0000    0.0000    0.0000   -0.0000   -0.0000   -0.0000   -0.0000
    6 S2     1s         0.0000    0.0000   -0.0000    0.0000   -0.0007   -1.0000   -0.0000   -0.0000    0.0000    0.0000
    7 S2     2s         0.0000   -0.0000   -0.0000    0.0000   -0.0000    0.0000   -0.0000   -0.0000    0.0000    0.0000
    8 S2     3s         0.0000    0.0000   -0.0000    0.0000   -0.0000    0.0004   -0.0000   -0.0000    0.0000    0.0000
    9 S2     2px        0.0000    0.0000    0.0000    0.0000    0.0000    0.0000   -0.0000    0.0000   -0.0000    0.0000
   10 S2     3px        0.0000    0.0000    0.0000    0.0000    0.0000   -0.0000   -0.0000    0.0000   -0.0000    0.0000
   11 S2     2py       -0.0000    0.0000    0.0000   -0.0000    0.0000    0.0001   -0.0000    0.0000   -0.0000   -0.0000
   12 S2     3py       -0.0000    0.0000    0.0000   -0.0000    0.0000   -0.0000   -0.0000    0.0000   -0.0000   -0.0000
   13 S2     2pz       -0.0000   -0.0000   -0.0000   -0.0000   -0.0000   -0.0001    0.0000    0.0000    0.0000    0.0000
   14 S2     3pz       -0.0000   -0.0000   -0.0000   -0.0000    0.0000    0.0000    0.0000    0.0000   -0.0000   -0.0000
   15 O3     1s        -0.0000   -0.0000   -0.0000    0.0000   -0.0000   -0.0000    0.0000    0.0000    0.0000    0.0000
   16 O3     2s        -0.0000    0.0000   -0.0000    0.0000   -0.0000   -0.0000    0.0000    0.0000    0.0000    0.0000
   17 O3     2px       -0.0000   -0.0000    0.0000    0.0000    0.0000    0.0000   -0.0000   -0.0000    0.0000    0.0000
   18 O3     2py        0.0000   -0.0000   -0.0000   -0.0000    0.0000   -0.0000   -0.0000    0.0000   -0.0000   -0.0000
   19 O3     2pz        0.0000    0.0000   -0.0000    0.0000    0.0000   -0.0000    0.0000    0.0000    0.0000    0.0000
   20 PU4    1s        -0.0000   -0.0000    0.0000    0.0000   -0.0000    0.0000   -0.0000    0.0000   -0.0000    0.0000
   21 PU4    2s        -0.0000   -0.0000    0.0000   -0.0000   -0.0000    0.0000    0.0000   -0.0000   -0.0000   -0.0000
   22 PU4    3s        -0.0000   -0.0000    0.0000   -0.0000   -0.0000    0.0000    0.0000    0.0000    0.0000    0.0000
   23 PU4    4s         0.0000    0.0000   -0.0000    0.0000   -0.0000    0.0000    1.0000    0.0000    0.0000    0.0000
   24 PU4    5s        -0.0000   -0.0000    0.0000   -0.0000   -0.0000    0.0000   -0.0002   -0.0000   -0.0000   -0.0000
   25 PU4    6s         0.0000    0.0000   -0.0000   -0.0000   -0.0000    0.0000    0.0000   -0.0000   -0.0000    0.0000
   26 PU4    7s        -0.0000   -0.0000    0.0000   -0.0000   -0.0000    0.0000   -0.0000   -0.0000   -0.0000    0.0000
   27 PU4    2px        0.0000    0.0000    0.0000    0.0000    0.0000    0.0000   -0.0000   -0.0000    0.0000    0.0000
   28 PU4    3px        0.0000   -0.0000    0.0000    0.0000    0.0000    0.0000    0.0000   -0.0000    0.0000    0.0000
   29 PU4    4px       -0.0000    0.0000   -0.0000   -0.0000    0.0000    0.0000   -0.0000   -0.0019    0.4141    0.9102
   30 PU4    5px        0.0000   -0.0000   -0.0000   -0.0000    0.0000    0.0000   -0.0000   -0.0000   -0.0001   -0.0001
   31 PU4    6px        0.0000    0.0000    0.0000    0.0000    0.0000    0.0000   -0.0000    0.0000    0.0000    0.0001
   32 PU4    7px        0.0000    0.0000   -0.0000   -0.0000    0.0000    0.0000   -0.0000   -0.0000   -0.0000   -0.0000
   33 PU4    2py       -0.0000   -0.0000   -0.0000    0.0000    0.0000    0.0000    0.0000   -0.0000    0.0000   -0.0000
   34 PU4    3py       -0.0000    0.0000   -0.0000    0.0000    0.0000    0.0000   -0.0000   -0.0000    0.0000   -0.0000
   35 PU4    4py       -0.0000    0.0000    0.0000    0.0000    0.0000    0.0000    0.0000   -0.0044    0.9102   -0.4141
   36 PU4    5py        0.0000    0.0000    0.0000   -0.0000    0.0000    0.0000    0.0000   -0.0000   -0.0001    0.0001
   37 PU4    6py        0.0000   -0.0000   -0.0000    0.0000    0.0000    0.0000    0.0000    0.0000    0.0000   -0.0000
   38 PU4    7py        0.0000    0.0000    0.0000   -0.0000    0.0000    0.0000    0.0000   -0.0000   -0.0001    0.0000
   39 PU4    2pz        0.0000    0.0000   -0.0000    0.0000   -0.0000   -0.0000   -0.0000    0.0000    0.0000   -0.0000
   40 PU4    3pz        0.0000    0.0000   -0.0000   -0.0000   -0.0000   -0.0000    0.0000    0.0000    0.0000   -0.0000
   41 PU4    4pz       -0.0000   -0.0000    0.0000   -0.0000   -0.0000   -0.0000   -0.0000    1.0000    0.0048   -0.0001
   42 PU4    5pz        0.0000   -0.0000   -0.0000    0.0000   -0.0000   -0.0000    0.0000    0.0001   -0.0000    0.0000
   43 PU4    6pz       -0.0000    0.0000    0.0000    0.0000   -0.0000   -0.0000   -0.0000    0.0000   -0.0000   -0.0000
   44 PU4    7pz        0.0000    0.0000    0.0000    0.0000   -0.0000   -0.0000   -0.0000   -0.0000   -0.0000   -0.0000
   45 PU4    3d2-      -0.0081   -0.1516   -0.7378    0.6577   -0.0000    0.0000   -0.0000    0.0000    0.0000   -0.0000
   46 PU4    4d2-       0.0000    0.0000    0.0000   -0.0000   -0.0000    0.0000    0.0000    0.0000   -0.0000    0.0000
   47 PU4    5d2-      -0.0000   -0.0000   -0.0000    0.0000   -0.0000    0.0000    0.0000   -0.0000    0.0000   -0.0000
   48 PU4    6d2-       0.0000    0.0000    0.0000   -0.0000   -0.0000    0.0000   -0.0000    0.0000   -0.0000    0.0000
   49 PU4    3d1-      -0.4141   -0.0016   -0.0042   -0.0048    0.0000   -0.0000    0.0000   -0.0000    0.0000    0.0000
   50 PU4    4d1-       0.0000   -0.0000    0.0000    0.0000    0.0000   -0.0000   -0.0000    0.0000   -0.0000    0.0000
   51 PU4    5d1-      -0.0000    0.0000   -0.0000   -0.0000    0.0000   -0.0000   -0.0000    0.0000    0.0000   -0.0000
   52 PU4    6d1-       0.0000   -0.0000    0.0000    0.0000    0.0000   -0.0000    0.0000   -0.0000   -0.0000    0.0000
   53 PU4    3d0        0.0058    0.9795   -0.2015   -0.0001    0.0000   -0.0000   -0.0000    0.0000   -0.0000   -0.0000
   54 PU4    4d0       -0.0000   -0.0000    0.0000    0.0000    0.0000   -0.0000    0.0001   -0.0000    0.0000    0.0000
   55 PU4    5d0        0.0000    0.0000   -0.0000   -0.0000    0.0000   -0.0000    0.0001    0.0000   -0.0000   -0.0000
   56 PU4    6d0        0.0000    0.0000   -0.0000   -0.0000    0.0000   -0.0000    0.0000   -0.0000   -0.0000    0.0000
   57 PU4    3d1+       0.9102   -0.0072   -0.0015    0.0103    0.0000   -0.0000    0.0000    0.0000    0.0000    0.0000
   58 PU4    4d1+      -0.0000    0.0000    0.0000   -0.0000    0.0000   -0.0000   -0.0000   -0.0000   -0.0000   -0.0000
   59 PU4    5d1+       0.0000   -0.0000   -0.0000    0.0000    0.0000   -0.0000   -0.0000   -0.0000   -0.0000    0.0000
   60 PU4    6d1+      -0.0000    0.0000    0.0000   -0.0000    0.0000   -0.0000    0.0000    0.0000    0.0000    0.0000
   61 PU4    3d2+      -0.0080    0.1326    0.6443    0.7532    0.0000   -0.0000    0.0000    0.0000   -0.0000    0.0000
   62 PU4    4d2+       0.0000   -0.0000   -0.0000   -0.0000    0.0000   -0.0000   -0.0000    0.0000   -0.0000   -0.0000
   63 PU4    5d2+      -0.0000    0.0000    0.0000    0.0000    0.0000   -0.0000   -0.0000   -0.0000    0.0000   -0.0000
   64 PU4    6d2+       0.0000   -0.0000   -0.0000   -0.0000    0.0000   -0.0000    0.0000    0.0000    0.0000   -0.0000
   65 PU4    4f3-       0.0000    0.0000    0.0000   -0.0000   -0.0000   -0.0000    0.0000    0.0000   -0.0000    0.0000
   66 PU4    5f3-      -0.0000   -0.0000   -0.0000    0.0000   -0.0000   -0.0000   -0.0000   -0.0000   -0.0000    0.0000
   67 PU4    4f2-       0.0000    0.0000    0.0000   -0.0000   -0.0000   -0.0000    0.0000    0.0000   -0.0000   -0.0000
   68 PU4    5f2-      -0.0000   -0.0000   -0.0000    0.0000   -0.0000   -0.0000    0.0000    0.0000   -0.0000   -0.0000
   69 PU4    4f1-       0.0000    0.0000   -0.0000   -0.0000   -0.0000   -0.0000    0.0000   -0.0000    0.0001   -0.0001
   70 PU4    5f1-      -0.0000   -0.0000    0.0000    0.0000   -0.0000   -0.0000   -0.0000   -0.0000    0.0000   -0.0000
   71 PU4    4f0        0.0000   -0.0000    0.0000   -0.0000   -0.0000   -0.0000   -0.0000    0.0002    0.0000   -0.0000
   72 PU4    5f0       -0.0000    0.0000   -0.0000    0.0000   -0.0000   -0.0000    0.0000    0.0000   -0.0000   -0.0000
   73 PU4    4f1+      -0.0000   -0.0000    0.0000    0.0000   -0.0000   -0.0000   -0.0000   -0.0000    0.0001    0.0001
   74 PU4    5f1+       0.0000    0.0000   -0.0000    0.0000   -0.0000   -0.0000    0.0000   -0.0000    0.0000    0.0000
   75 PU4    4f2+      -0.0000   -0.0000   -0.0000   -0.0000    0.0000    0.0000   -0.0000   -0.0000    0.0000   -0.0000
   76 PU4    5f2+       0.0000    0.0000    0.0000    0.0000    0.0000    0.0000    0.0000   -0.0000    0.0000   -0.0000
   77 PU4    4f3+      -0.0000   -0.0000   -0.0000   -0.0000   -0.0000   -0.0000   -0.0000    0.0000   -0.0000   -0.0000
   78 PU4    5f3+       0.0000    0.0000    0.0000    0.0000   -0.0000   -0.0000    0.0000    0.0000   -0.0000   -0.0000
   79 O5     1s        -0.0000   -0.0000   -0.0000    0.0000    0.0000    0.0000    0.0000   -0.0000   -0.0000   -0.0000
   80 O5     2s        -0.0000    0.0000   -0.0000    0.0000    0.0000    0.0000    0.0000   -0.0000   -0.0000   -0.0000
   81 O5     2px        0.0000    0.0000   -0.0000   -0.0000    0.0000    0.0000    0.0000   -0.0000    0.0000    0.0000
   82 O5     2py       -0.0000    0.0000    0.0000    0.0000   -0.0000    0.0000    0.0000    0.0000   -0.0000   -0.0000
   83 O5     2pz       -0.0000   -0.0000    0.0000   -0.0000   -0.0000    0.0000   -0.0000    0.0000    0.0000    0.0000
   84 S6     1s         0.0000    0.0000   -0.0000   -0.0000    1.0000   -0.0007   -0.0000    0.0000   -0.0000    0.0000
   85 S6     2s         0.0000   -0.0000   -0.0000   -0.0000   -0.0000    0.0000   -0.0000    0.0000   -0.0000    0.0000
   86 S6     3s         0.0000    0.0000   -0.0000   -0.0000   -0.0004    0.0000   -0.0000    0.0000   -0.0000    0.0000
   87 S6     2px       -0.0000   -0.0000   -0.0000   -0.0000    0.0000    0.0000    0.0000    0.0000   -0.0000    0.0000
   88 S6     3px       -0.0000   -0.0000   -0.0000   -0.0000   -0.0000    0.0000    0.0000    0.0000   -0.0000    0.0000
   89 S6     2py        0.0000   -0.0000   -0.0000    0.0000    0.0001    0.0000    0.0000    0.0000   -0.0000   -0.0000
   90 S6     3py        0.0000   -0.0000   -0.0000    0.0000   -0.0000    0.0000    0.0000    0.0000   -0.0000   -0.0000
   91 S6     2pz        0.0000    0.0000    0.0000    0.0000   -0.0001    0.0000   -0.0000    0.0000    0.0000    0.0000
   92 S6     3pz        0.0000    0.0000    0.0000    0.0000    0.0000    0.0000   -0.0000    0.0000   -0.0000   -0.0000
   93 C7     1s        -0.0000    0.0000    0.0000   -0.0000   -0.0000    0.0000    0.0000    0.0000    0.0000    0.0000
   94 C7     2s         0.0000    0.0000    0.0000   -0.0000   -0.0000    0.0000    0.0000    0.0000    0.0000    0.0000
   95 C7     2px        0.0000    0.0000   -0.0000    0.0000    0.0000    0.0000   -0.0000   -0.0000   -0.0000   -0.0000
   96 C7     2py       -0.0000    0.0000   -0.0000   -0.0000    0.0000    0.0000   -0.0000   -0.0000   -0.0000    0.0000
   97 C7     2pz        0.0000    0.0000   -0.0000    0.0000    0.0000    0.0000    0.0000   -0.0000   -0.0000   -0.0000
   98 O8     1s         0.0000   -0.0000   -0.0000   -0.0000   -0.0000   -0.0000    0.0000    0.0000    0.0000   -0.0000
   99 O8     2s         0.0000    0.0000   -0.0000   -0.0000   -0.0000   -0.0000    0.0000    0.0000    0.0000   -0.0000
  100 O8     2px       -0.0000   -0.0000   -0.0000    0.0000    0.0000   -0.0000    0.0000    0.0000   -0.0000    0.0000
  101 O8     2py       -0.0000   -0.0000    0.0000    0.0000    0.0000    0.0000   -0.0000   -0.0000    0.0000   -0.0000
  102 O8     2pz       -0.0000    0.0000   -0.0000   -0.0000    0.0000   -0.0000    0.0000    0.0000    0.0000   -0.0000
  103 O9     1s         0.0000   -0.0000   -0.0000   -0.0000    0.0000    0.0000    0.0000   -0.0000   -0.0000    0.0000
  104 O9     2s         0.0000    0.0000   -0.0000   -0.0000    0.0000    0.0000    0.0000   -0.0000   -0.0000    0.0000
  105 O9     2px        0.0000    0.0000    0.0000   -0.0000   -0.0000    0.0000   -0.0000    0.0000   -0.0000    0.0000
  106 O9     2py        0.0000    0.0000   -0.0000   -0.0000    0.0000    0.0000    0.0000   -0.0000    0.0000   -0.0000
  107 O9     2pz        0.0000   -0.0000    0.0000    0.0000   -0.0000    0.0000   -0.0000    0.0000    0.0000   -0.0000
  108 O10    1s        -0.0000   -0.0000    0.0000    0.0000    0.0000   -0.0000    0.0000    0.0000   -0.0000   -0.0000
  109 O10    2s        -0.0000   -0.0000    0.0000    0.0000    0.0000   -0.0000    0.0000    0.0000   -0.0000   -0.0000
  110 O10    2px       -0.0000   -0.0000   -0.0000    0.0000   -0.0000   -0.0000   -0.0000   -0.0000   -0.0000   -0.0000
  111 O10    2py        0.0000   -0.0000   -0.0000   -0.0000   -0.0000   -0.0000   -0.0000   -0.0000   -0.0000    0.0000
  112 O10    2pz       -0.0000   -0.0000    0.0000    0.0000   -0.0000    0.0000   -0.0000    0.0000   -0.0000   -0.0000
  113 O11    1s        -0.0000   -0.0000    0.0000    0.0000    0.0000   -0.0000    0.0000   -0.0000    0.0000    0.0000
  114 O11    2s        -0.0000   -0.0000    0.0000    0.0000    0.0000   -0.0000    0.0000   -0.0000    0.0000    0.0000
  115 O11    2px        0.0000    0.0000    0.0000   -0.0000   -0.0000   -0.0000    0.0000   -0.0000   -0.0000   -0.0000
  116 O11    2py       -0.0000    0.0000    0.0000    0.0000   -0.0000   -0.0000    0.0000   -0.0000   -0.0000    0.0000
  117 O11    2pz        0.0000    0.0000   -0.0000   -0.0000    0.0000   -0.0000    0.0000    0.0000   -0.0000   -0.0000
  118 C12    1s        -0.0000    0.0000   -0.0000   -0.0000    0.0000    0.0000   -0.0000   -0.0000   -0.0000    0.0000
  119 C12    2s        -0.0000    0.0000   -0.0000   -0.0000   -0.0000    0.0000    0.0000   -0.0000   -0.0000    0.0000
  120 C12    2px        0.0000    0.0000   -0.0000    0.0000   -0.0000    0.0000    0.0000   -0.0000   -0.0000   -0.0000
  121 C12    2py       -0.0000    0.0000   -0.0000   -0.0000   -0.0000    0.0000    0.0000   -0.0000   -0.0000    0.0000
  122 C12    2pz        0.0000   -0.0000   -0.0000    0.0000   -0.0000    0.0000    0.0000   -0.0000    0.0000   -0.0000
  123 C13    1s         0.0000    0.0000   -0.0000    0.0000   -0.0000    0.0000    0.0000    0.0000    0.0000   -0.0000
  124 C13    2s         0.0000    0.0000   -0.0000    0.0000   -0.0000    0.0000    0.0000    0.0000    0.0000   -0.0000
  125 C13    2px        0.0000    0.0000    0.0000   -0.0000   -0.0000    0.0000    0.0000    0.0000    0.0000   -0.0000
  126 C13    2py       -0.0000    0.0000    0.0000    0.0000   -0.0000    0.0000    0.0000    0.0000    0.0000    0.0000
  127 C13    2pz        0.0000    0.0000   -0.0000    0.0000   -0.0000    0.0000    0.0000   -0.0000    0.0000   -0.0000
  128 C14    1s        -0.0000   -0.0000    0.0000   -0.0000   -0.0000   -0.0000    0.0000    0.0000    0.0000    0.0000
  129 C14    2s        -0.0000   -0.0000    0.0000   -0.0000    0.0000    0.0000    0.0000    0.0000    0.0000    0.0000
  130 C14    2px       -0.0000   -0.0000    0.0000   -0.0000    0.0000    0.0000    0.0000    0.0000    0.0000   -0.0000
  131 C14    2py       -0.0000   -0.0000    0.0000    0.0000    0.0000    0.0000    0.0000    0.0000    0.0000    0.0000
  132 C14    2pz       -0.0000    0.0000    0.0000   -0.0000    0.0000    0.0000    0.0000    0.0000    0.0000    0.0000
  133 C15    1s         0.0000    0.0000   -0.0000    0.0000   -0.0000    0.0000   -0.0000   -0.0000   -0.0000   -0.0000
  134 C15    2s         0.0000    0.0000   -0.0000    0.0000   -0.0000    0.0000    0.0000   -0.0000   -0.0000   -0.0000
  135 C15    2px        0.0000   -0.0000   -0.0000    0.0000   -0.0000    0.0000    0.0000    0.0000   -0.0000   -0.0000
  136 C15    2py       -0.0000   -0.0000   -0.0000   -0.0000   -0.0000    0.0000    0.0000    0.0000   -0.0000    0.0000
  137 C15    2pz       -0.0000    0.0000   -0.0000   -0.0000   -0.0000    0.0000    0.0000    0.0000   -0.0000    0.0000
[...]
 ###############################################################################
 ###############################################################################
 ###############################################################################
 ###                                                                         ###
 ###                                                                         ###
 ###    RunFile label ipCff                                                  ###
 ###    was used       41 times                                              ###
 ###                                                                         ###
 ###                                                                         ###
 ###############################################################################
 ###############################################################################
 ###############################################################################
 ###############################################################################
 ###                                                                         ###
 ###                                                                         ###
 ###    RunFile label ipExp                                                  ###
 ###    was used       41 times                                              ###
 ###                                                                         ###
 ###                                                                         ###
 ###############################################################################
 ###############################################################################
 ###############################################################################
 ###############################################################################
 ###                                                                         ###
 ###                                                                         ###
 ###    RunFile label IndS                                                   ###
 ###    was used       41 times                                              ###
 ###                                                                         ###
 ###                                                                         ###
 ###############################################################################
 ###############################################################################
 ###############################################################################
 ###############################################################################
 ###                                                                         ###
 ###                                                                         ###
 ###    RunFile label ip_Occ                                                 ###
 ###    was used       41 times                                              ###
 ###                                                                         ###
 ###                                                                         ###
 ###############################################################################
 ###############################################################################
 ###############################################################################
 ###############################################################################
 ###                                                                         ###
 ###                                                                         ###
 ###    RunFile label ipAkl                                                  ###
 ###    was used       41 times                                              ###
 ###                                                                         ###
 ###                                                                         ###
 ###############################################################################
 ###############################################################################
 ###############################################################################
 ###############################################################################
 ###                                                                         ###
 ###                                                                         ###
 ###    RunFile label ipBk                                                   ###
 ###    was used       41 times                                              ###
 ###                                                                         ###
 ###                                                                         ###
 ###############################################################################
 ###############################################################################
 ###############################################################################
 ###############################################################################
 ###                                                                         ###
 ###                                                                         ###
 ###    RunFile label nOpt                                                   ###
 ###    was used       41 times                                              ###
 ###                                                                         ###
 ###                                                                         ###
 ###############################################################################
 ###############################################################################
 ###############################################################################
 ###############################################################################
 ###                                                                         ###
 ###                                                                         ###
 ###    RunFile label Prjct                                                  ###
 ###    was used       41 times                                              ###
 ###                                                                         ###
 ###                                                                         ###
 ###############################################################################
 ###############################################################################
 ###############################################################################
 ###############################################################################
 ###                                                                         ###
 ###                                                                         ###
 ###    RunFile label Transf                                                 ###
 ###    was used       41 times                                              ###
 ###                                                                         ###
 ###                                                                         ###
 ###############################################################################
 ###############################################################################
 ###############################################################################
 ###############################################################################
 ###                                                                         ###
 ###                                                                         ###
 ###    RunFile label iCoSet                                                 ###
 ###    was used       41 times                                              ###
 ###                                                                         ###
 ###                                                                         ###
 ###############################################################################
 ###############################################################################
 ###############################################################################
 ###############################################################################
 ###                                                                         ###
 ###                                                                         ###
 ###    RunFile label nBasis_Cntrct                                          ###
 ###    was used       41 times                                              ###
 ###                                                                         ###
 ###                                                                         ###
 ###############################################################################
 ###############################################################################
 ###############################################################################
 ###############################################################################
 ###                                                                         ###
 ###                                                                         ###
 ###    RunFile label ipCff_Cntrct                                           ###
 ###    was used       41 times                                              ###
 ###                                                                         ###
 ###                                                                         ###
 ###############################################################################
 ###############################################################################
 ###############################################################################
 ###############################################################################
 ###                                                                         ###
 ###                                                                         ###
 ###    RunFile label ipCff_Prim                                             ###
 ###    was used       41 times                                              ###
 ###                                                                         ###
 ###                                                                         ###
 ###############################################################################
 ###############################################################################
 ###############################################################################
 ###############################################################################
 ###                                                                         ###
 ###                                                                         ###
 ###    RunFile label ipFockOp                                               ###
 ###    was used       41 times                                              ###
 ###                                                                         ###
 ###                                                                         ###
 ###############################################################################
 ###############################################################################
 ###############################################################################
 ###############################################################################
 ###                                                                         ###
 ###                                                                         ###
 ###    RunFile label IrrCmp                                                 ###
 ###    was used       41 times                                              ###
 ###                                                                         ###
 ###                                                                         ###
 ###############################################################################
 ###############################################################################
 ###############################################################################
 ###############################################################################
 ###                                                                         ###
 ###                                                                         ###
 ###    RunFile label iAOtSO                                                 ###
 ###    was used       41 times                                              ###
 ###                                                                         ###
 ###                                                                         ###
 ###############################################################################
 ###############################################################################
 ###############################################################################
 ###############################################################################
 ###                                                                         ###
 ###                                                                         ###
 ###    RunFile label iSOInf                                                 ###
 ###    was used       41 times                                              ###
 ###                                                                         ###
 ###                                                                         ###
 ###############################################################################
 ###############################################################################
 ###############################################################################
 ###############################################################################
 ###                                                                         ###
 ###                                                                         ###
 ###    RunFile label FragShell                                              ###
 ###    was used       41 times                                              ###
 ###                                                                         ###
 ###                                                                         ###
 ###############################################################################
 ###############################################################################
 ###############################################################################
 ###############################################################################
 ###                                                                         ###
 ###                                                                         ###
 ###    RunFile label AuxShell                                               ###
 ###    was used       41 times                                              ###
 ###                                                                         ###
 ###                                                                         ###
 ###############################################################################
 ###############################################################################
--- Stop Module: rasscf at Fri Nov 16 16:16:43 2018 /rc=_RC_ALL_IS_WELL_ ---
*** files: PuO2_C6H5SO2_C6H5SO2-m1-quartet.casscf.MB.LprOrb PuO2_C6H5SO2_C6H5SO2-m1-quartet.casscf.MB.rasscf.molden.15 PuO2_C6H5SO2_C6H5SO2-m1-quartet.casscf.MB.rasscf.molden.5
           PuO2_C6H5SO2_C6H5SO2-m1-quartet.casscf.MB.rasscf.molden.9 PuO2_C6H5SO2_C6H5SO2-m1-quartet.casscf.MB.rasscf.molden.4
           PuO2_C6H5SO2_C6H5SO2-m1-quartet.casscf.MB.rasscf.molden.2 PuO2_C6H5SO2_C6H5SO2-m1-quartet.casscf.MB.rasscf.molden.6
           PuO2_C6H5SO2_C6H5SO2-m1-quartet.casscf.MB.rasscf.molden.20 PuO2_C6H5SO2_C6H5SO2-m1-quartet.casscf.MB.rasscf.molden.8
           PuO2_C6H5SO2_C6H5SO2-m1-quartet.casscf.MB.rasscf.molden.19 PuO2_C6H5SO2_C6H5SO2-m1-quartet.casscf.MB.rasscf.molden.12
           PuO2_C6H5SO2_C6H5SO2-m1-quartet.casscf.MB.rasscf.molden.18 PuO2_C6H5SO2_C6H5SO2-m1-quartet.casscf.MB.rasscf.molden.16
           PuO2_C6H5SO2_C6H5SO2-m1-quartet.casscf.MB.rasscf.molden.7 PuO2_C6H5SO2_C6H5SO2-m1-quartet.casscf.MB.rasscf.molden.1
           PuO2_C6H5SO2_C6H5SO2-m1-quartet.casscf.MB.rasscf.molden PuO2_C6H5SO2_C6H5SO2-m1-quartet.casscf.MB.rasscf.molden.13
           PuO2_C6H5SO2_C6H5SO2-m1-quartet.casscf.MB.rasscf.molden.3 PuO2_C6H5SO2_C6H5SO2-m1-quartet.casscf.MB.rasscf.molden.14
           PuO2_C6H5SO2_C6H5SO2-m1-quartet.casscf.MB.rasscf.molden.10 PuO2_C6H5SO2_C6H5SO2-m1-quartet.casscf.MB.rasscf.molden.11
           PuO2_C6H5SO2_C6H5SO2-m1-quartet.casscf.MB.rasscf.molden.17 PuO2_C6H5SO2_C6H5SO2-m1-quartet.casscf.MB.LoProp.molden PuO2_C6H5SO2_C6H5SO2-m1-quartet.casscf.MB.RasOrb.3
           PuO2_C6H5SO2_C6H5SO2-m1-quartet.casscf.MB.RasOrb.5 PuO2_C6H5SO2_C6H5SO2-m1-quartet.casscf.MB.RasOrb.4 PuO2_C6H5SO2_C6H5SO2-m1-quartet.casscf.MB.RasOrb.13
           PuO2_C6H5SO2_C6H5SO2-m1-quartet.casscf.MB.RasOrb.15 PuO2_C6H5SO2_C6H5SO2-m1-quartet.casscf.MB.RasOrb.6 PuO2_C6H5SO2_C6H5SO2-m1-quartet.casscf.MB.RasOrb.10
           PuO2_C6H5SO2_C6H5SO2-m1-quartet.casscf.MB.RasOrb.1 PuO2_C6H5SO2_C6H5SO2-m1-quartet.casscf.MB.RasOrb.11 PuO2_C6H5SO2_C6H5SO2-m1-quartet.casscf.MB.RasOrb.8
           PuO2_C6H5SO2_C6H5SO2-m1-quartet.casscf.MB.RasOrb.14 PuO2_C6H5SO2_C6H5SO2-m1-quartet.casscf.MB.RasOrb.7 PuO2_C6H5SO2_C6H5SO2-m1-quartet.casscf.MB.RasOrb.18
           PuO2_C6H5SO2_C6H5SO2-m1-quartet.casscf.MB.RasOrb.20 PuO2_C6H5SO2_C6H5SO2-m1-quartet.casscf.MB.RasOrb.17 PuO2_C6H5SO2_C6H5SO2-m1-quartet.casscf.MB.RasOrb
           PuO2_C6H5SO2_C6H5SO2-m1-quartet.casscf.MB.RasOrb.12 PuO2_C6H5SO2_C6H5SO2-m1-quartet.casscf.MB.RasOrb.9 PuO2_C6H5SO2_C6H5SO2-m1-quartet.casscf.MB.RasOrb.19
           PuO2_C6H5SO2_C6H5SO2-m1-quartet.casscf.MB.RasOrb.2 PuO2_C6H5SO2_C6H5SO2-m1-quartet.casscf.MB.RasOrb.16 PuO2_C6H5SO2_C6H5SO2-m1-quartet.casscf.MB.rasscf.h5
           PuO2_C6H5SO2_C6H5SO2-m1-quartet.casscf.MB.SpdOrb.16 PuO2_C6H5SO2_C6H5SO2-m1-quartet.casscf.MB.SpdOrb.14 PuO2_C6H5SO2_C6H5SO2-m1-quartet.casscf.MB.SpdOrb.6
           PuO2_C6H5SO2_C6H5SO2-m1-quartet.casscf.MB.SpdOrb.20 PuO2_C6H5SO2_C6H5SO2-m1-quartet.casscf.MB.SpdOrb.17 PuO2_C6H5SO2_C6H5SO2-m1-quartet.casscf.MB.SpdOrb.18
           PuO2_C6H5SO2_C6H5SO2-m1-quartet.casscf.MB.SpdOrb.4 PuO2_C6H5SO2_C6H5SO2-m1-quartet.casscf.MB.SpdOrb.19 PuO2_C6H5SO2_C6H5SO2-m1-quartet.casscf.MB.SpdOrb.7
           PuO2_C6H5SO2_C6H5SO2-m1-quartet.casscf.MB.SpdOrb.15 PuO2_C6H5SO2_C6H5SO2-m1-quartet.casscf.MB.SpdOrb.8 PuO2_C6H5SO2_C6H5SO2-m1-quartet.casscf.MB.SpdOrb.1
           PuO2_C6H5SO2_C6H5SO2-m1-quartet.casscf.MB.SpdOrb.11 PuO2_C6H5SO2_C6H5SO2-m1-quartet.casscf.MB.SpdOrb.10 PuO2_C6H5SO2_C6H5SO2-m1-quartet.casscf.MB.SpdOrb.2
           PuO2_C6H5SO2_C6H5SO2-m1-quartet.casscf.MB.SpdOrb.3 PuO2_C6H5SO2_C6H5SO2-m1-quartet.casscf.MB.SpdOrb.9 PuO2_C6H5SO2_C6H5SO2-m1-quartet.casscf.MB.SpdOrb.12
           PuO2_C6H5SO2_C6H5SO2-m1-quartet.casscf.MB.SpdOrb.5 PuO2_C6H5SO2_C6H5SO2-m1-quartet.casscf.MB.SpdOrb.13 xmldump
    saved to directory /home/vallet/John-methylsulfonyl/PuO2_C6H5SO2_C6H5SO2-m1/geom-quartet/optg-freq-pbe0/SO-XMS
--- Module rasscf spent 2 minutes 25 seconds ---

>>> COPY PuO2_C6H5SO2_C6H5SO2-m1-quartet.casscf.MB.RasOrb /home/vallet/John-methylsulfonyl/PuO2_C6H5SO2_C6H5SO2-m1/geom-quartet/optg-freq-pbe0/SO-XMS/PuO2_C6H5SO2_C6H5SO2-m1-quartet.casscf.MB.RasOrb_doublets

>>> COPY PuO2_C6H5SO2_C6H5SO2-m1-quartet.casscf.MB.rasscf.molden /home/vallet/John-methylsulfonyl/PuO2_C6H5SO2_C6H5SO2-m1/geom-quartet/optg-freq-pbe0/SO-XMS/PuO2_C6H5SO2_C6H5SO2-m1-quartet.casscf.MB.rasscf_doublets.molden

    Timing: Wall=652.71 User=4661.45 System=132.05
