
   OpenMP run-time library returned nthreads =  8
 operating system is UNIX !

 force (u-0-11.local) : TURBOMOLE V7.2 ( 21471 ) 11 Oct 2017 at 17:04:51
 Copyright (C) 2017 TURBOMOLE GmbH, Karlsruhe


    2018-02-12 22:23:22.918 



                             T U R B O M O L E   

                          a o f o r c e - program

                        using direct algorithms for

                       SCF level calculations of
                         * harmonic force constants
                         * hyperpolarizabilities
                         * IR and RAMAN intensities
                         * VCD intensities

                       DFT level calculations of
                         * harmonic force constants
                         * IR intensities
                                                   
       Stephan Boecker, Peter Deglmann, Filipp Furche and Marco Haeser
                          Quantum Chemistry Group
                          Universitaet  Karlsruhe
                                   Germany

 
 

          OpenMP Shared-Memory Parallelization:  8 CPUs.

            By: Erik P. Almaraz and Filipp Furche
            Copyright 2009-2011 by UCI and TURBOMOLE GmbH.

 
 
     References :
 
       RI-J implementation:
         Peter Deglmann, Klaus May, Filipp Furche, Reinhart Ahlrichs
                 Chem. Phys. Lett. 384:103 (2004)
 
       Efficiency, technical details:
         Peter Deglmann, Filipp Furche, Reinhart Ahlrichs
                 Chem. Phys. Lett. 362:511 (2002)
 
       Search of lowest eigenvalues by iterative diagonalization:
         Peter Deglmann, Filipp Furche
                 J. Chem. Phys. 117:9535 (2002)
 
       Vibrational circular dichroism implementation:
        Kevin Reiter, Michael Kuehn, Florian Weigend
                 J. Chem. Phys. 146:054102 (2017)  
 
 


              +--------------------------------------------------+
              | Atomic coordinate, charge and isotop information |
              +--------------------------------------------------+

                    atomic coordinates            atom    charge  isotop
          1.79003965    4.28232977    2.05653311    c      6.000     0
          3.25245130    1.18162547    1.94858875    s     16.000     0
          1.19308741   -0.47101099    3.14247747    o      8.000     0
         -0.64176113   -2.14733141   -0.90263290    np    93.000     0
         -2.59120218   -3.75053699   -5.00298996    o      8.000     0
         -4.84195320   -5.11621011   -3.81140926    s     16.000     0
         -4.62642893   -4.84945613   -0.94203030    o      8.000     0
          3.21449119    0.62282406   -0.89464537    o      8.000     0
          1.24173113   -4.90951341   -0.70996118    o      8.000     0
         -2.54237695    0.61836994   -1.10244590    o      8.000     0
          3.02688954    5.61378987    1.08500931    h      1.000     0
         -0.02779558    4.10924621    1.10074830    h      1.000     0
          1.55282776    4.81587371    4.03275794    h      1.000     0
 
       center of nuclear mass  :   -0.58896087   -1.87505154   -0.80269686
       center of nuclear charge:   -0.56433650   -1.78207074   -0.76521448

              +--------------------------------------------------+
              |               basis set information              |
              +--------------------------------------------------+

              we will work with the 1s 3p 5d 7f 9g ... basis set
              ...i.e. with spherical basis functions...

   type   atoms  prim   cont   basis
   ---------------------------------------------------------------------------
    c        1     66     46   aug-cc-pVTZ   [5s4p3d2f|19s6p3d2f]
    s        2    122     50   aug-cc-pVTZ   [6s5p3d2f|42s17p3d2f]
    o        6     66     46   aug-cc-pVTZ   [5s4p3d2f|19s6p3d2f]
    np       1    213    117   SVP(6g)   [10s9p5d4f3g|14s13p10d8f6g]
    h        3     25     23   aug-cc-pVTZ   [4s3p2d|6s3p2d]
   ---------------------------------------------------------------------------
   total:   13    994    608
   ---------------------------------------------------------------------------

   total number of primitive shells          :  186
   total number of contracted shells         :  188
   total number of cartesian basis functions :  730
   total number of SCF-basis functions       :  608

 number of unique ecp types :                     1
 
             FOUND RI-J FLAG !
 

 NOTE: THIS IS A PRELIMINARY IMPLEMENTATION. THE RI APPROXIMATION IS
       PRESENTLY USED FOR CPKS CONTRIBUTIONS TO THE HESSIAN ONLY! SEE
       MANUAL FOR FURTHER DETAILS.

  
 AUXILIARY BASIS SET information:

              we will work with the 1s 3p 5d 7f 9g ... basis set
              ...i.e. with spherical basis functions...

   type   atoms  prim   cont   basis
   ---------------------------------------------------------------------------
    c        1     70     49   aug-cc-pVTZ   [6s4p3d1f1g|12s5p4d2f1g]
    s        2     77     51   aug-cc-pVTZ   [8s4p3d1f1g|14s5p5d2f1g]
    o        6     70     49   aug-cc-pVTZ   [6s4p3d1f1g|12s5p4d2f1g]
    np       1    268    205   def-TZVPP   [14s7p7d6f5g2h2i|18s7p7d6f6g3h5i]
    h        3     16     11   aug-cc-pVTZ   [3s1p1d|5s2p1d]
   ---------------------------------------------------------------------------
   total:   13    960    683
   ---------------------------------------------------------------------------

   total number of primitive shells          :  135
   total number of contracted shells         :  197
   total number of cartesian basis functions :  899
   total number of SCF-basis functions       :  683


 symmetry group of the molecule :   c1 

 the group has the following generators :
   c1(z)

    1 symmetry operations found

 there are 1 real representations :   a   

 maximum number of shells which are related by symmetry :  1


 determining totally symmetric integral contributions 
    - equivalent to irreducible tensor elements - 
 which can be formed within each triple of representations :

             representation triple      contributions

              a     a     a               1
       UHF mode switched on !

    mo occupation :
   irrep   mo's   occupied
    a      608       62
 
 number of basis functions   :                    608
 number of occupied orbitals :                     62
 
 ALPHA-Occupation:                    62
 BETA-Occupation :                    61
  MOs are in ASCII format !


 reading orbital data $uhfmo_alpha  from file alpha
 orbital characterization : scfconv=7

 reading orbital data $uhfmo_beta  from file beta
 orbital characterization : scfconv=7
 time elapsed for calculating density matrices :   0.239 sec

 number of non-frozen orbitals          :   608
 number of non-frozen occupied orbitals :    62

 number of non-frozen orbitals          :   608
 number of non-frozen occupied orbitals :    61
 Blocking parameters 
 shells:
    index      start shell   last shell  start bf    last bf    #bf 
       1             1         188             1        730    730
  
           ----------------------
               RI - INFORMATION
           ----------------------

 biggest AO integral is expected to be    25.741671788

 Threshold for integral neglect (rithr2):   0.34E-11
 Threshold for integral neglect (rithr1):   0.34E-11

 Contributions to RI integral batches: 
  neglected integral batches:                  1917
  direct contribution:                         8494
  memory contribution:                  7355
 Core memory available (ricore):               500 MiB
 Core memory needed for (P|Q) and Cholesky:      4 MiB
 Core memory used for integrals:               445 MiB
 
 ****************************************
 Memory allocated for RIDFT: 449 MiB
 ****************************************
 
  
           ------------------
           density functional
           ------------------
 PBE0 hybrid functional
 exchange:    3/4 (LDA+PBE) + 1/4 HF
 correlation: LDA (PW) + PBE

 iterations will be done with small grid
  
 spherical integration : Lebedev's spherical grid
 spherical gridsize    :                     4
    i.e. gridpoints    :                   434
 value for diffuse not defined
 radial integration    : Chebyshev 2nd kind (scaling 3)
 radial gridsize       :                     6
 integration cells     :                    13
 partition function    : becke
 partition sharpness   :                     3
  
 
 Derivatives of quadrature weights will be included
 
          Overall gridpoints after grid construction =        151758
 Ordering of quadrature gridpoints disabled.
 
 
 
 
 OCCUPIED-OCCUPIED TENSOR SPACES :

          IRREP   tensor space dimension   number of roots

           a              7565                  33
 
 OCCUPIED-VIRTUAL TENSOR SPACES :

          IRREP   tensor space dimension   number of roots

           a             67219                  33
 
 
 
 
 CONSTRUCTING integral bounds

 setting up bound for integral derivative estimation

 increment for numerical differentiation : 0.00050000
 W A R N I N G : d2ixjz =-.145181655466E-03
 
 machine precision:   2.220446049250313E-016

 integral neglect threshold       :  0.10E-09
 integral storage threshold THIZE :  0.10E-04
 integral storage threshold THIME :         5

 
 
 
 PREPARING NUMERICAL INTEGRATION
 
 Remaining core memory for DFT =                  3521 MB
 
 Memory needed per atom    =                 12506 KiB
 
     i. e.                    13 atoms per loop

 Calculating ground state density on molecular grid

 Integral of ground state total density: Na =   122.9999769601525    

 Integral of ground state spin density:  Nb =   1.000005280712187    


 
 
 CONSTRUCTING first deriv. of <mu|x,y,z|nu> -> Dip. deriv.
  dipole integral derivatives will be neglected if
  expon. factor <0.684932E-12
      ...terminated. cpu:       0.63       wall:       0.09
 
 
 
 
 CONSTRUCTING first deriv. of  <mu|nu>
                               <mu|h|nu>    -> RHS
              second deriv. of <mu|nu>      -> Hessian
                               <mu|h|nu>    -> Hessian
                               nucl. rep.   -> Hessian
     integrals are neglected if expon. factor <  6.849315068493150E-014
 
 CONSTRUCTING ECP contribution              -> RHS
 
                                            -> Hessian
      ...terminated. cpu:      30.74       wall:      27.11
 
 
 
 
 CONSTRUCTING second deriv. of 2e energy    -> Hessian
   treating Coulomb (and exchange) contribution
     integrals will be neglected if total contribution <  6.849315068493150E-010
      ...terminated. cpu:    5927.48       wall:     743.01
   treating exchange-correlation contribution
      ...terminated. cpu:    1525.53       wall:     217.54
 
 
 
 
 CONSTRUCTING S(i,j)xi
      ...terminated. cpu:       0.58       wall:       0.11
 
 
 
 
 CONSTRUCTING <i|x,y,z|j>*S(i,j)xi          -> Dip. deriv.
      ...terminated. cpu:       1.17       wall:       0.27
 
 
 
 
 CONSTRUCTING epsilon(i)*S(i,j)xi*S(i,j)chi -> Hessian
      ...terminated. cpu:       0.01       wall:       0.00
 
 
 
 
 CONSTRUCTING G(a,i)[S(k,l)xi]              -> RHS
              G(i,j)[S(k,l)xi]*S(i,j)chi    -> Hessian
 
         Maximum core memory set to                   4000 MB
         This corresponds to                   487 vectors in CAO basis
      ...terminated. cpu:   10690.33       wall:    1341.21
 
 
 
 
 CONSTRUCTING G(mu,nu)[D(kap,lam)]xi
 
          Maximum core memory set to                   4000 MB
          Atoms treated simultaneously :                    13
      ...terminated. cpu:    6689.54       wall:     836.19
 
 
 
 
 CONSTRUCTING F(a,i)xi                      -> RHS
              F(i,j)xi*S(i,j)chi            -> Hessian
 
        Maximum core memory set to                  4000 MB
        This corresponds to                   872 vectors in CAO basis
      ...terminated. cpu:      14.65       wall:       2.89
 
 
 
 
 CONSTRUCTING epsilon(i)*S(a,i)xi           -> RHS
      ...terminated. cpu:       2.88       wall:       1.14
 
 
 
 
 SOLVING CPHF equations
 
 Residuum convergence criterium   :  1.000000000000000E-005
 
 Maximum number of Davidson iterations set to                    25
  Switching to small grid
        preparing numerical integration ....
          Overall gridpoints after grid construction =         46422

 Calculating ground state density on molecular grid

 Integral of ground state total density: Na =   122.9996729314251    

 Integral of ground state spin density:  Nb =   1.000014153588129    




                       Nonorthonormal Krylov Space Iteration


 total number of roots to be determined:  33


 maximum core memory set to  4000 MB,
 corresponding to      487 vectors in CAO basis


 maximum number of simultaneously treated vectors (including degeneracy):       33


 Iteration IRREP Converged      Max. Euclidean
                 roots          residual norm

    1       a        0        1.318971234232689D-01
 
    2       a        0        2.667530756912740D-02
 
    3       a        0        8.709336523147648D-03
 
    4       a        0        4.668764704261118D-03
 
    5       a        0        4.351967206935313D-03
 
    6       a        0        4.673872516974125D-03
 
    7       a        0        1.334026203868070D-03
 
    8       a        2        2.203505375714496D-04
 
    9       a       20        2.779194250856927D-05
 
   10       a       33        9.759072775519895D-06
 

 converged!

  Switching to fine grid
        preparing numerical integration ....
          Overall gridpoints after grid construction =        151758

 Calculating ground state density on molecular grid

 Integral of ground state total density: Na =   122.9999769601538    

 Integral of ground state spin density:  Nb =   1.000005280712180    



 Iteration IRREP Converged      Max. Euclidean
                 roots          residual norm

   11       a        0        1.714708814952236D-04
 

 NOTE: Residual norms are larger than 1.00D-05 due to mgrid option!

      ...terminated. cpu:   62575.18       wall:    7842.89
 
 
 
 
 CONSTRUCTING <a|x,y,z|i>*U(a,i)xi          -> Dip. deriv.
      ...terminated. cpu:       3.02       wall:       0.38
 
 
 
 
 CONSTRUCTING RHS(a,i)xi*U(a,i)chi          -> Hessian
      ...terminated. cpu:       0.19       wall:       0.02
 
 
 
 

            -----------------------
            permanent dipole moment
            -----------------------

                                   x                y                z
    electronic part       :   64.8853636080   198.1424640997    86.1692074018
     nuclear   part       :  -64.2035747920  -195.4969903268   -85.1110616968
     total                :    0.6817888159     2.6454737729     1.0581457050

 with reference to the point :   0.0000000        0.0000000        0.0000000
 (given in atomic units)
    | dipole |       :    7.4465665423  debye

   ***  dipole moment & cartesian dipole gradients written onto
        $dipole, $dipgrad,  file=<dipgrad>  ***

             -----------------------------------
             rotational and vibrational analysis
             -----------------------------------


            ==============================================================
            ATOMIC WEIGHTS (average over the natural occurance of isotops)
            ==============================================================
            ('*' denotes special isotop !)
              1     c                12.01115
              2     s                32.06400
              3     o                15.99940
              4     np              237.04820
              5     o                15.99940
              6     s                32.06400
              7     o                15.99940
              8     o                15.99940
              9     o                15.99940
             10     o                15.99940
             11     h                 1.00797
             12     h                 1.00797
             13     h                 1.00797

          -------------------------------------------------
          CARTESIAN FORCE CONSTANT MATRIX (hartree/bohr**2)
         (translational & rotational space projected out)
          -------------------------------------------------

   ATOM              1 c                           2 s 
                  dx        dy        dz        dx        dy        dz
   1 c     dx  0.5223911
           dy  0.0926070 0.3819020
           dz  0.0034537-0.0034708 0.5664203
   2 s     dx -0.0922333 0.0286059-0.0198104 0.4268825
           dy  0.0697246-0.0961804 0.0189512 0.0977223 0.3517578
           dz -0.0086473-0.0016584-0.0419963-0.0177716 0.0045529 0.5072434
   3 o     dx  0.0123325-0.0007420 0.0052914-0.2377540-0.1448595 0.0822531
           dy -0.0309309-0.0230955 0.0129856-0.1231345-0.1552317 0.0660745
           dz  0.0046765 0.0057119 0.0011717 0.0681818 0.0574941-0.1093260
   4 np    dx -0.0008843 0.0020128 0.0019073-0.0088605-0.0228712-0.0241994
           dy -0.0015915-0.0000710 0.0001497-0.0150286-0.0041588-0.0160045
           dz  0.0009157 0.0019608-0.0026010-0.0220736-0.0199286 0.0106418
   5 o     dx  0.0001608-0.0003262-0.0001244 0.0004832 0.0012354 0.0010603
           dy  0.0001112-0.0002205-0.0000431 0.0003784 0.0007362 0.0008031
           dz  0.0000797-0.0003240 0.0000108 0.0012688 0.0016082 0.0002181
   6 s     dx -0.0001277 0.0002194 0.0000816-0.0003028-0.0007139-0.0012008
           dy -0.0000623 0.0001135 0.0000404-0.0002827-0.0004496-0.0007234
           dz  0.0000045 0.0001790-0.0001098-0.0011010-0.0009415 0.0008866
   7 o     dx  0.0001407-0.0004111-0.0000403 0.0008446 0.0016549 0.0013132
           dy  0.0001029-0.0002576-0.0000283 0.0007271 0.0010019 0.0007152
           dz  0.0000332-0.0002313 0.0000810 0.0006027 0.0008107-0.0004692
   8 o     dx  0.0102717 0.0046550 0.0160193-0.0753570-0.0170178-0.0366556
           dy -0.0055089-0.0058089-0.0342332-0.0052087-0.0699307-0.0579981
           dz  0.0056831-0.0067483-0.0140468-0.0134496-0.0662289-0.3570774
   9 o     dx  0.0001677 0.0002277-0.0003607-0.0028748 0.0004575 0.0009824
           dy  0.0001880-0.0006296-0.0003605 0.0031364 0.0020699 0.0033771
           dz -0.0003870-0.0003329 0.0007444 0.0017281 0.0020180-0.0031569
  10 o     dx  0.0012409-0.0016287-0.0001466 0.0014880 0.0048416 0.0045333
           dy -0.0002642 0.0004525-0.0001743-0.0009593-0.0096225-0.0017433
           dz  0.0002421-0.0008622 0.0005117 0.0029410 0.0011712-0.0031796
  11 h     dx -0.1437304-0.1069464 0.0774721 0.0056521 0.0043819-0.0048119
           dy -0.1102560-0.1564814 0.0849358-0.0178686-0.0090026 0.0106229
           dz  0.0782330 0.0839119-0.1060328-0.0005338-0.0013310-0.0019818
  12 h     dx -0.2617447-0.0253844-0.1149464-0.0164155 0.0063868-0.0068399
           dy -0.0206183-0.0401362-0.0088016 0.0334482-0.0100652 0.0138222
           dz -0.1136777-0.0111678-0.1054958 0.0005011 0.0002735 0.0010405
  13 h     dx -0.0479850 0.0071111 0.0312034-0.0015527-0.0009428 0.0099842
           dy  0.0064985-0.0595870-0.0699507-0.0015359-0.0009242-0.0218402
           dz  0.0293905-0.0669678-0.2986574-0.0004836 0.0015505-0.0028433

   ATOM              3 o                           4 np
                  dx        dy        dz        dx        dy        dz
   3 o     dx  0.2125378
           dy  0.1463251 0.1777223
           dz -0.1014366-0.0822654 0.1485775
   4 np    dx -0.0112326 0.0048509-0.0053539 0.4200955
           dy  0.0018854-0.0163785-0.0036563-0.3502476 0.7082681
           dz  0.0053191 0.0017765-0.0267069 0.0677010-0.0085003 0.1260340
   5 o     dx -0.0018032-0.0018830-0.0024228-0.0108353 0.0034968 0.0056327
           dy -0.0014717-0.0008906-0.0017275 0.0022738-0.0140337 0.0023535
           dz -0.0025055-0.0020187-0.0021210-0.0027385-0.0025393-0.0220057
   6 s     dx  0.0005873 0.0005756 0.0012775-0.0125189-0.0144040-0.0212308
           dy  0.0004451 0.0004140 0.0008517-0.0132385-0.0022284-0.0132050
           dz  0.0009551 0.0007358 0.0000688-0.0208894-0.0138096 0.0078554
   7 o     dx -0.0011931-0.0012090-0.0020421-0.0168260-0.0009072 0.0012819
           dy -0.0008746-0.0011091-0.0013476-0.0012074-0.0164722 0.0005872
           dz -0.0013402-0.0008899 0.0007520 0.0092046 0.0062873-0.0134498
   8 o     dx  0.0193197 0.0068205 0.0372645-0.0209251-0.0030393 0.0005245
           dy  0.0035925 0.0147159 0.0239842-0.0017501-0.0196061 0.0019022
           dz  0.0179872 0.0071032-0.0150073 0.0122991 0.0052354-0.0134929
   9 o     dx  0.0064224-0.0004074 0.0046253-0.1716197 0.1915663-0.0199500
           dy -0.0054052-0.0031283-0.0066332 0.1938826-0.3196718 0.0178627
           dz  0.0004497-0.0047030 0.0015875-0.0193155 0.0167070-0.0331343
  10 o     dx -0.0031638-0.0026980-0.0049102-0.1660363 0.1877576-0.0179275
           dy  0.0054178 0.0109431 0.0057569 0.1821662-0.3120076 0.0142002
           dz -0.0063877 0.0015746-0.0010329-0.0194068 0.0169556-0.0336244
  11 h     dx  0.0013051 0.0045201-0.0002511-0.0007336 0.0008991-0.0001635
           dy  0.0016875-0.0094282 0.0012691 0.0004513-0.0000773 0.0014539
           dz -0.0002272-0.0003031 0.0014271-0.0003940 0.0001481-0.0000783
  12 h     dx  0.0029041-0.0019862 0.0007455 0.0013913-0.0009840 0.0000945
           dy -0.0053931 0.0043572-0.0017645 0.0024202-0.0038419-0.0000191
           dz  0.0004967-0.0000837-0.0008864 0.0010199-0.0017232 0.0007148
  13 h     dx -0.0002624-0.0008432-0.0003544-0.0010146 0.0005968-0.0001238
           dy -0.0006074 0.0011094 0.0023266 0.0012570 0.0002792-0.0004440
           dz -0.0008551 0.0000136 0.0014957 0.0001657 0.0007502-0.0001528

   ATOM              5 o                           6 s 
                  dx        dy        dz        dx        dy        dz
   5 o     dx  0.2642410
           dy  0.1541521 0.1054262
           dz -0.1243928-0.0709943 0.1463852
   6 s     dx -0.2707847-0.1633063 0.0944011 0.3348960
           dy -0.1630095-0.1055822 0.0541311 0.2068666 0.1366979
           dz  0.1077195 0.0626004-0.1080537-0.0424230-0.0030659 0.5088962
   7 o     dx  0.0162437 0.0102098 0.0365121-0.0524168-0.0326656-0.0494338
           dy  0.0094477 0.0108402 0.0225154-0.0318664-0.0279847-0.0490552
           dz  0.0192848 0.0116863-0.0155279-0.0359605-0.0408634-0.4039555
   8 o     dx -0.0010575-0.0007965-0.0020378 0.0009405 0.0007018 0.0010109
           dy -0.0009167-0.0009578-0.0017053 0.0008297 0.0005220 0.0007249
           dz -0.0014565-0.0010230 0.0004618 0.0007514 0.0004791-0.0004949
   9 o     dx -0.0024789-0.0012958-0.0043240 0.0017849 0.0007308 0.0030662
           dy  0.0023123 0.0072532 0.0053454-0.0006284-0.0029258-0.0000516
           dz -0.0054421 0.0015991-0.0003985 0.0026802 0.0006420-0.0024271
  10 o     dx  0.0058029-0.0002682 0.0036939-0.0020699 0.0005225 0.0011084
           dy -0.0044879-0.0026336-0.0060477 0.0024629 0.0014802 0.0027222
           dz  0.0001019-0.0052866 0.0010543 0.0016482 0.0017370-0.0026825
  11 h     dx -0.0000102-0.0000153-0.0000515 0.0000177 0.0000223 0.0000615
           dy -0.0000420-0.0000306-0.0000996 0.0000167 0.0000138 0.0000921
           dz  0.0000322 0.0000100 0.0000010-0.0000113-0.0000061-0.0000039
  12 h     dx  0.0000408 0.0000438 0.0000868-0.0000160-0.0000430-0.0000730
           dy  0.0001097 0.0001342 0.0001563-0.0001048-0.0001022-0.0001037
           dz  0.0001087 0.0001122 0.0000292-0.0000898-0.0000697 0.0000334
  13 h     dx -0.0000026-0.0000152 0.0000076 0.0000105 0.0000127-0.0000060
           dy -0.0000885-0.0000409-0.0000274 0.0000528 0.0000314-0.0000267
           dz -0.0001015-0.0000901-0.0000536 0.0000762 0.0000522-0.0000129

   ATOM              7 o                           8 o 
                  dx        dy        dz        dx        dy        dz
   7 o     dx  0.0561814
           dy  0.0298858 0.0319583
           dz  0.0127215 0.0266147 0.4278079
   8 o     dx -0.0032395-0.0024133-0.0013764 0.0676031
           dy -0.0028149-0.0014906-0.0011267 0.0150484 0.0781108
           dz -0.0016700-0.0010090-0.0001153-0.0178619 0.0682767 0.3929873
   9 o     dx -0.0066482-0.0013962-0.0029801 0.0081335-0.0017109 0.0000254
           dy  0.0028499 0.0087183 0.0004947-0.0074195-0.0054386-0.0032192
           dz  0.0002765 0.0003089 0.0023224 0.0012815 0.0002164 0.0021720
  10 o     dx  0.0068801-0.0024156-0.0002348-0.0081029-0.0028912-0.0045027
           dy -0.0065819-0.0052654-0.0028037 0.0038365 0.0114489 0.0037148
           dz  0.0010541 0.0006515 0.0025824 0.0009894 0.0004858 0.0034270
  11 h     dx -0.0000443-0.0000612-0.0000579 0.0000559-0.0003423-0.0010438
           dy -0.0000975-0.0000572-0.0000946 0.0013172 0.0023429-0.0015610
           dz  0.0000202 0.0000227 0.0000060-0.0000278-0.0002014-0.0000415
  12 h     dx  0.0000697 0.0000770 0.0000746 0.0026011-0.0025528 0.0015087
           dy  0.0001558 0.0001620 0.0001009-0.0056725 0.0039898-0.0011227
           dz  0.0000888 0.0000743-0.0000313-0.0000034 0.0004606-0.0002165
  13 h     dx  0.0000078-0.0000057 0.0000284-0.0002436 0.0042259 0.0017296
           dy -0.0000689-0.0000441 0.0000150 0.0039795-0.0078977-0.0038972
           dz -0.0000820-0.0000496-0.0000027 0.0008726-0.0007861 0.0014445

   ATOM              9 o                          10 o 
                  dx        dy        dz        dx        dy        dz
   9 o     dx  0.1586493
           dy -0.1927038 0.3085676
           dz  0.0185705-0.0173214 0.0217138
  10 o     dx  0.0084463 0.0037443 0.0001689 0.1571721
           dy  0.0051785 0.0047361 0.0010880-0.1855335 0.2972754
           dz  0.0005454 0.0003844 0.0105750 0.0189957-0.0172073 0.0235044
  11 h     dx  0.0000772-0.0001761 0.0000932 0.0001983-0.0009269-0.0005406
           dy  0.0001058-0.0000978-0.0002919-0.0001813 0.0003372-0.0000499
           dz  0.0000365 0.0000308 0.0000358 0.0000465-0.0003707-0.0002443
  12 h     dx -0.0002163 0.0002301-0.0000441-0.0017817 0.0007647-0.0002115
           dy -0.0006165 0.0007088-0.0001207-0.0010432 0.0025317 0.0004287
           dz -0.0002769 0.0003041-0.0000540-0.0007030 0.0013310-0.0009320
  13 h     dx  0.0001567-0.0000107-0.0000601-0.0000742-0.0010728 0.0000288
           dy -0.0001361-0.0001620 0.0001906-0.0002062 0.0003240 0.0000172
           dz  0.0000401-0.0002132 0.0000201-0.0001221-0.0004662 0.0000408

   ATOM             11 h                          12 h 
                  dx        dy        dz        dx        dy        dz
  11 h     dx  0.1516545
           dy  0.1173961 0.1661865
           dz -0.0858714-0.0916836 0.1106566
  12 h     dx -0.0117987 0.0008971-0.0074877 0.2779343
           dy -0.0171523-0.0006587-0.0106382 0.0221007 0.0441907
           dz  0.0151241 0.0000803 0.0075912 0.1227104 0.0109246 0.1088391
  13 h     dx -0.0026437 0.0065738 0.0161850 0.0070316-0.0076338-0.0252990
           dy -0.0015989 0.0069535 0.0204106 0.0004501-0.0012701-0.0005162
           dz  0.0000407-0.0046736-0.0113351 0.0043822-0.0028622-0.0106323

   ATOM             13 h 
                  dx        dy        dz
  13 h     dx  0.0465722
           dy -0.0079960 0.0612285
           dz -0.0333236 0.0737423 0.3206891
 

   *** projected hessian written onto $hessian (projected), file=<hessian> ***

 dipole moment in principle axis system (a.u.) :
    -1.4286799411    -2.5577154789     0.0022271688
 norm :   2.92968254348198     

 rotational constants b for rotations around axis of inertia
 and optical intensities for (1 <-- 0) transition

   b   :     0.0138152208     0.0685494702     0.0132909734   (cm**(-1))
   b   :         414.1699        2055.0614         398.4534     (MHz)
  int. :     2.0411263742     6.5419084711     0.0000049603     (a.u.)

   x   :     0.6464989077    -0.6273026893     0.4342009884
   y   :    -0.7537695236    -0.6130671830     0.2366012141
   z   :     0.1177737989    -0.4802498986    -0.8691889134

   ***  normal modes written onto $vibrational normal modes, file=<vib_normal_modes>  ***

 keyword $vibrational reduced masses missing in file <control>


   ***  vibrational spectroscopic data written onto$vibrational spectrum   
        file=<vibspectrum>  ***

          ---------------------------------------------------
          NORMAL MODES and VIBRATIONAL FREQUENCIES (cm**(-1))
          ---------------------------------------------------

 imaginary wave numbers indicate a negative curvature of the energy surface.
 zero frequency modes have no physical meaning except being generators of
 translations and rotations. each vibrational normal mode - given in terms of
 cartesian displacement vectors of all atoms - has been normalized to unity.
 to obtain mass-weigthed normal coordinates in a.u. divide the tabulated
 modes by sqrt(reduced mass * 1822.88853).
 band intensities or cross sections refer to independent non-degenerate normal
 modes, that is, the intensities of degenerate modes have yet to be added.
 dDIP/dQ is the normal mode derivative of the dipole moment.


       mode               1        2        3        4        5        6

     frequency           0.00     0.00     0.00     0.00     0.00     0.00

     symmetry                                                             

        IR                -        -        -        -        -        - 
|dDIP/dQ|   (a.u.)     0.0000   0.0000   0.0000   0.0000   0.0000   0.0000
intensity (km/mol)       0.00     0.00     0.00     0.00     0.00     0.00
intensity (  %   )       0.00     0.00     0.00     0.00     0.00     0.00
 
       RAMAN              -        -        -        -        -        - 
 
  1   c           x   0.28004  0.16550  0.32630 -0.03321 -0.08538  0.06961
                  y  -0.14627  0.10988 -0.09497 -0.14920 -0.12152 -0.15126
                  z  -0.00145  0.03712 -0.01550  0.02040  0.36318 -0.04928
  2   s           x   0.11897  0.03120  0.28110 -0.02403 -0.02049 -0.09090
                  y  -0.22200  0.03884 -0.11300 -0.14916 -0.08365 -0.23279
                  z  -0.00837  0.25845 -0.10976  0.14364  0.15442  0.11817
  3   o           x   0.01107 -0.12446  0.31938 -0.08913  0.03842 -0.21734
                  y  -0.12634  0.18023 -0.09479 -0.13529 -0.19757 -0.07777
                  z  -0.06208  0.18567 -0.01852  0.05054  0.09834  0.11466
  4   np          x  -0.00577  0.07081  0.09625  0.13883 -0.00401 -0.17385
                  y   0.01274  0.10344 -0.04335 -0.19122 -0.00196 -0.13681
                  z  -0.11207  0.12892  0.06137 -0.02969  0.03652  0.11940
  5   o           x  -0.01779  0.27313 -0.12869  0.36981 -0.04909 -0.12469
                  y   0.15843  0.02969  0.00995 -0.24800  0.19440 -0.19192
                  z  -0.16332  0.06156  0.14748 -0.11730 -0.01882  0.11758
  6   s           x  -0.11057  0.13073 -0.08684  0.30454  0.00358 -0.23587
                  y   0.26417  0.17973  0.03064 -0.23436  0.07647 -0.02687
                  z  -0.21737 -0.03546  0.25024 -0.22494 -0.05448  0.09674
  7   o           x  -0.14710 -0.04989  0.05959  0.14377  0.05360 -0.31551
                  y   0.22259  0.28378  0.00809 -0.19579 -0.08575  0.07247
                  z  -0.21076 -0.03157  0.24134 -0.21645 -0.04316  0.09349
  8   o           x   0.13969  0.19673  0.13222  0.13557 -0.06370 -0.02756
                  y  -0.19003 -0.07228 -0.09292 -0.18720  0.08089 -0.34051
                  z  -0.01493  0.27807 -0.11172  0.14899  0.12266  0.13849
  9   o           x  -0.15434 -0.06823  0.07039  0.13086  0.05941 -0.32627
                  y  -0.08829  0.02511 -0.06886 -0.18673  0.02753 -0.22902
                  z  -0.10801  0.36510 -0.05154  0.11258 -0.16074  0.28754
 10   o           x   0.14312  0.21049  0.12181  0.14720 -0.06764 -0.02101
                  y   0.11474  0.18228 -0.01756 -0.19582 -0.03140 -0.04398
                  z  -0.11640 -0.10856  0.17517 -0.17296  0.23432 -0.04944
 11   h           x   0.36714  0.29156  0.29497  0.01978 -0.13303  0.17179
                  y  -0.20104  0.01486 -0.10415 -0.16093 -0.03830 -0.25419
                  z   0.03438  0.06737 -0.06797  0.07179  0.41657 -0.06025
 12   h           x   0.28778  0.22182  0.27644  0.02043 -0.10022  0.09168
                  y  -0.04065  0.15493 -0.06504 -0.16382 -0.10521 -0.09198
                  z  -0.03530 -0.07816  0.07391 -0.07897  0.38846 -0.10199
 13   h           x   0.27327  0.05707  0.43164 -0.14429 -0.05848  0.03326
                  y  -0.15464  0.19915 -0.10555 -0.12303 -0.24158 -0.06244
                  z   0.00000  0.00000  0.00000  0.00000  0.39882 -0.07762

reduced mass(g/mol)    16.110   21.732   15.857   30.813    7.551   30.093


       mode               7        8        9       10       11       12

     frequency          32.32    44.23    89.58   101.95   143.97   147.79

     symmetry            a        a        a        a        a        a   

        IR               YES      YES      YES      YES      YES      YES
|dDIP/dQ|   (a.u.)     0.0008   0.0005   0.0009   0.0006   0.0015   0.0003
intensity (km/mol)       1.10     0.43     1.33     0.72     4.22     0.20
intensity (  %   )       0.28     0.11     0.34     0.19     1.09     0.05
 
       RAMAN             YES      YES      YES      YES      YES      YES
 
  1   c           x   0.10775  0.35494  0.30250  0.13699  0.17186  0.09038
                  y   0.06463 -0.04448  0.12175  0.07433  0.23227  0.05819
                  z  -0.23604  0.15812  0.19116 -0.26081  0.16020 -0.15014
  2   s           x   0.11688  0.11776  0.01516 -0.04224 -0.01707 -0.02820
                  y   0.06918 -0.15001 -0.00576 -0.02227  0.14148 -0.00545
                  z  -0.24148  0.01329  0.00448  0.08477  0.02610  0.05754
  3   o           x   0.22863  0.01381 -0.10501 -0.19823 -0.06255 -0.07552
                  y   0.09284 -0.02938  0.13236  0.15607  0.18516  0.08562
                  z  -0.02225 -0.00216 -0.01807  0.05650  0.00371  0.08783
  4   np          x  -0.05304 -0.06420 -0.00310  0.00194  0.02183  0.00321
                  y  -0.03187  0.07211 -0.02277  0.00006 -0.05861 -0.00262
                  z   0.11021 -0.01009 -0.00786 -0.00344 -0.00443 -0.00405
  5   o           x   0.20496  0.03337  0.06131 -0.17863 -0.21795  0.18838
                  y   0.22304 -0.06384 -0.12652  0.24845  0.23566 -0.31239
                  z  -0.06962 -0.00600 -0.00097 -0.02730 -0.04575  0.01103
  6   s           x   0.15100  0.20477 -0.09621 -0.00844  0.02667  0.00070
                  y   0.09481 -0.33746  0.12040  0.00149 -0.14975 -0.01143
                  z  -0.31437  0.00385 -0.01530  0.00996 -0.02704 -0.00047
  7   o           x  -0.03107  0.03148  0.05458  0.18395 -0.19226 -0.21698
                  y  -0.12408 -0.07523 -0.11561 -0.25074  0.20353  0.34021
                  z  -0.28213 -0.00772 -0.00467  0.01946 -0.04397 -0.01614
  8   o           x  -0.10865  0.01089 -0.10856  0.10797 -0.07279 -0.00913
                  y  -0.02345 -0.03421  0.13881 -0.19624  0.19149 -0.10431
                  z  -0.22308 -0.00682 -0.01940  0.11456  0.01957  0.07110
  9   o           x  -0.02677 -0.07182  0.14947  0.06437 -0.13959  0.19438
                  y  -0.01756  0.06855  0.08725  0.03457 -0.18364  0.09863
                  z   0.05984 -0.01656  0.10010 -0.11810 -0.09167 -0.41361
 10   o           x  -0.11910 -0.05395 -0.13688 -0.04224  0.17271 -0.16367
                  y  -0.06790  0.08060 -0.12792 -0.02483  0.03106 -0.09254
                  z   0.24003  0.00114 -0.10477  0.07445  0.06940  0.35552
 11   h           x   0.02029  0.42885  0.39283  0.29113  0.25028  0.14515
                  y   0.03410 -0.10029  0.05725 -0.09879  0.18298 -0.08862
                  z  -0.38919  0.17586  0.21798 -0.30181  0.19213 -0.28152
 12   h           x   0.02975  0.32023  0.25984  0.18874  0.14041  0.07249
                  y   0.01879  0.12376  0.33249  0.10589  0.40089  0.05934
                  z  -0.07940  0.19261  0.23278 -0.36497  0.19115 -0.11622
 13   h           x   0.26870  0.43533  0.40072  0.03953  0.25569  0.13541
                  y   0.13874 -0.09531  0.05181  0.27452  0.16782  0.24724
                  z  -0.23670  0.18144  0.22174 -0.32654  0.18784 -0.19570

reduced mass(g/mol)    17.958   11.397    6.209    7.556    9.976   12.218


       mode              13       14       15       16       17       18

     frequency         178.32   188.99   200.94   208.35   216.50   229.89

     symmetry            a        a        a        a        a        a   

        IR               YES      YES      YES      YES      YES      YES
|dDIP/dQ|   (a.u.)     0.0022   0.0055   0.0022   0.0017   0.0018   0.0031
intensity (km/mol)       8.67    53.83     8.43     5.07     5.83    17.54
intensity (  %   )       2.23    13.88     2.17     1.31     1.50     4.52
 
       RAMAN             YES      YES      YES      YES      YES      YES
 
  1   c           x   0.06080  0.02262  0.00486 -0.00125  0.05925 -0.01928
                  y  -0.04030 -0.16311  0.00319 -0.00075  0.07632 -0.01015
                  z   0.01854 -0.03233 -0.01013  0.00029  0.04979  0.03654
  2   s           x  -0.15495 -0.24774 -0.00823  0.00405 -0.11136  0.01273
                  y  -0.12816 -0.25303 -0.00391  0.00182  0.00071  0.00697
                  z  -0.11183 -0.19197  0.01628 -0.00395 -0.05571 -0.02374
  3   o           x  -0.23867 -0.37528  0.05072  0.02640 -0.13908 -0.01962
                  y  -0.01518 -0.09885  0.00950 -0.00081  0.02611  0.00396
                  z  -0.09778 -0.16822  0.11806  0.03423 -0.05696 -0.04513
  4   np          x  -0.03152  0.09284  0.00785 -0.01497  0.00905 -0.03198
                  y  -0.04106  0.04773  0.00427 -0.00786  0.01927 -0.01724
                  z  -0.02699  0.05957 -0.01570  0.02869  0.01053  0.06306
  5   o           x   0.28709 -0.21523  0.00864 -0.18746  0.18893  0.02027
                  y   0.32768  0.07491  0.01763 -0.15244 -0.33256  0.02217
                  z   0.19408 -0.08185  0.03886 -0.45619  0.00538  0.04089
  6   s           x   0.37630 -0.08024 -0.00254 -0.00391 -0.07102  0.00969
                  y   0.21027 -0.12874 -0.00089 -0.00115  0.08206  0.00531
                  z   0.24556 -0.07429  0.00407  0.00810 -0.01353 -0.01878
  7   o           x   0.25790 -0.20502 -0.03029  0.43173  0.19757 -0.03816
                  y   0.31409  0.08210 -0.03183  0.28290 -0.32813 -0.03251
                  z   0.25216 -0.09002  0.00590 -0.02783  0.00371 -0.00319
  8   o           x  -0.22005 -0.34201 -0.11809 -0.03775 -0.12953  0.04951
                  y  -0.00685 -0.08192 -0.04640 -0.00885  0.02897  0.01025
                  z  -0.13580 -0.23716  0.01835  0.00022 -0.06551 -0.00860
  9   o           x  -0.07251  0.27421 -0.01811 -0.01109 -0.32178  0.21178
                  y  -0.10783  0.15954 -0.00996 -0.00525 -0.22039  0.11516
                  z  -0.06750  0.17838  0.03326  0.02576 -0.22287 -0.42184
 10   o           x  -0.05526  0.11409  0.00660  0.00053  0.37014  0.22415
                  y  -0.03310  0.07253  0.00375  0.00001  0.30020  0.12174
                  z  -0.03525  0.07461 -0.01076 -0.00907  0.26677 -0.44721
 11   h           x   0.13383  0.11170 -0.24308 -0.18310  0.15209 -0.22973
                  y  -0.09662 -0.23405 -0.13249 -0.08240  0.01849 -0.05737
                  z   0.03464 -0.01451 -0.51011 -0.34195  0.08861 -0.29458
 12   h           x   0.02809 -0.01676 -0.23291 -0.16814  0.03414 -0.19328
                  y   0.11233  0.01781 -0.12457 -0.09276  0.24104 -0.10496
                  z   0.05220  0.01105  0.46520  0.33431  0.07166  0.38462
 13   h           x   0.14355  0.12817  0.50987  0.35199  0.14169  0.35147
                  y  -0.09065 -0.22656  0.27756  0.17612  0.01359  0.12500
                  z   0.04195 -0.00329 -0.02276 -0.00446  0.07667  0.04532

reduced mass(g/mol)    20.408   20.107    1.677    9.338   14.691    9.982


       mode              19       20       21       22       23       24

     frequency         240.36   289.41   311.11   402.28   518.23   538.53

     symmetry            a        a        a        a        a        a   

        IR               YES      YES      YES      YES      YES      YES
|dDIP/dQ|   (a.u.)     0.0007   0.0069   0.0007   0.0033   0.0079   0.0038
intensity (km/mol)       0.88    85.59     0.78    19.92   109.54    25.26
intensity (  %   )       0.23    22.06     0.20     5.13    28.23     6.51
 
       RAMAN             YES      YES      YES      YES      YES      YES
 
  1   c           x   0.02167 -0.00925  0.09847  0.02678 -0.00425 -0.01028
                  y   0.01153  0.05360  0.05295  0.23968 -0.00220  0.03299
                  z  -0.04142  0.00782 -0.19604  0.07822 -0.00263  0.00388
  2   s           x  -0.00167  0.02310 -0.04414 -0.11736  0.08998  0.18104
                  y  -0.00104  0.04491 -0.02406  0.07603  0.03854  0.07281
                  z   0.00319  0.02460  0.08794 -0.03817  0.05541  0.11034
  3   o           x   0.11905  0.06733  0.05772  0.11066 -0.01167 -0.02533
                  y   0.00773 -0.00356 -0.25112 -0.21677  0.00681 -0.00730
                  z   0.19517  0.01630 -0.05817 -0.07397 -0.20116 -0.47200
  4   np          x   0.00106 -0.08598 -0.00250  0.00247  0.00332  0.00263
                  y   0.00054 -0.06441 -0.00128  0.00442  0.00209  0.00085
                  z  -0.00225 -0.06069  0.00530  0.00246  0.00223  0.00155
  5   o           x  -0.01177  0.03585  0.00248 -0.00084 -0.01107  0.00527
                  y  -0.00425  0.03744  0.00057  0.00301 -0.04197  0.01337
                  z  -0.01880  0.02392  0.00369 -0.00682 -0.60005  0.17347
  6   s           x  -0.00116  0.03923  0.00074  0.00499  0.20563 -0.05356
                  y  -0.00064  0.01963  0.00027  0.00258  0.14037 -0.03657
                  z   0.00249  0.02493 -0.00144  0.00319  0.14095 -0.03679
  7   o           x   0.02081  0.03319 -0.00420 -0.00623 -0.45298  0.13194
                  y   0.00903  0.03482 -0.00176  0.00004 -0.28003  0.08174
                  z   0.00114  0.03017 -0.00026  0.00406  0.28047 -0.07913
  8   o           x  -0.22046  0.05519 -0.04383  0.05746 -0.16127 -0.37204
                  y  -0.06159 -0.00696  0.25883 -0.24563 -0.07397 -0.19476
                  z   0.00605  0.04167  0.02916  0.03270  0.09647  0.21861
  9   o           x   0.02026  0.47474 -0.00507  0.01335 -0.00887  0.02322
                  y   0.01102  0.35174 -0.00282  0.01222  0.01986 -0.03956
                  z  -0.03952  0.33509  0.00856  0.00987  0.00088  0.00100
 10   o           x   0.04080  0.49035  0.01048 -0.03649  0.01980 -0.02394
                  y   0.02208  0.36164  0.00563 -0.01377 -0.01251  0.04311
                  z  -0.08140  0.34533 -0.02289 -0.02193  0.00658 -0.00046
 11   h           x   0.29126 -0.00314  0.31508  0.26735 -0.11505 -0.24074
                  y   0.09408  0.05059 -0.28617  0.09339  0.07014  0.18420
                  z   0.41232  0.00959 -0.38567  0.17922 -0.04439 -0.08389
 12   h           x   0.25986 -0.00535  0.16254 -0.06144  0.03866  0.08057
                  y   0.14048  0.04472  0.08786  0.72740 -0.23488 -0.46768
                  z  -0.51775  0.00692 -0.32423  0.16463 -0.04388 -0.08584
 13   h           x  -0.47183 -0.00323  0.03797  0.27980 -0.11883 -0.24967
                  y  -0.19280  0.05695  0.47619  0.09987  0.06806  0.17966
                  z  -0.04680  0.00855 -0.31788  0.14869 -0.03543 -0.06368

reduced mass(g/mol)     2.785   19.323    4.000    4.355   16.042   10.444


       mode              25       26       27       28       29       30

     frequency         666.17   845.19   906.57   916.10   938.15  1000.40

     symmetry            a        a        a        a        a        a   

        IR               YES      YES      YES      YES      YES      YES
|dDIP/dQ|   (a.u.)     0.0045   0.0012   0.0148   0.0018   0.0090   0.0118
intensity (km/mol)      35.23     2.48   387.96     5.79   143.18   248.27
intensity (  %   )       9.08     0.64   100.00     1.49    36.90    63.99
 
       RAMAN             YES      YES      YES      YES      YES      YES
 
  1   c           x   0.15146 -0.00719 -0.06980 -0.06557 -0.13198 -0.12645
                  y  -0.39000 -0.03184 -0.03517 -0.03555 -0.02945 -0.01370
                  z  -0.02988 -0.01235 -0.04541  0.13152 -0.07349 -0.06798
  2   s           x  -0.09307 -0.01916  0.00612 -0.00125  0.01697  0.16126
                  y   0.19145 -0.01758 -0.03219 -0.00050 -0.06972  0.09129
                  z   0.00526 -0.01437 -0.00576  0.00251 -0.01058  0.10852
  3   o           x   0.03914  0.03587  0.04204  0.02893  0.06054 -0.20661
                  y   0.00168  0.03081  0.04479  0.05390  0.09499 -0.13262
                  z  -0.03845 -0.07547 -0.02699 -0.02006 -0.05151  0.07535
  4   np          x  -0.00033 -0.00585 -0.04416 -0.00002  0.00433 -0.00113
                  y  -0.00133  0.01012  0.06479  0.00006 -0.00605 -0.00038
                  z  -0.00053 -0.00018 -0.00452 -0.00003  0.00053 -0.00065
  5   o           x  -0.00002 -0.01047  0.00825 -0.00007  0.00219 -0.05837
                  y   0.00035 -0.00456 -0.00658  0.00004  0.00224 -0.03539
                  z   0.00306  0.04885 -0.00599 -0.00019 -0.00274  0.03049
  6   s           x  -0.00029  0.00873 -0.00334 -0.00002 -0.00174  0.03489
                  y  -0.00021  0.00574  0.00036 -0.00001 -0.00137  0.02315
                  z  -0.00020  0.00593 -0.00163  0.00005 -0.00123  0.02382
  7   o           x   0.00226  0.03138  0.00196  0.00021 -0.00118 -0.00590
                  y   0.00154  0.01808 -0.00997  0.00002  0.00042 -0.00706
                  z  -0.00143 -0.03475  0.00670 -0.00007  0.00395 -0.07432
  8   o           x  -0.00507 -0.04107 -0.00356  0.00834 -0.02080 -0.04409
                  y  -0.02234 -0.01082  0.02059 -0.03401  0.05084 -0.04555
                  z   0.04993  0.07835  0.06462 -0.05472  0.11099 -0.25498
  9   o           x   0.00436 -0.34259  0.36945  0.00019 -0.02291 -0.01021
                  y  -0.00103  0.49713 -0.54151 -0.00039  0.03119  0.01773
                  z   0.00187 -0.03647  0.03798  0.00015 -0.00300 -0.00036
 10   o           x  -0.01265  0.43804  0.27244  0.00035 -0.03637  0.01600
                  y   0.01584 -0.63371 -0.38928 -0.00032  0.05551 -0.02216
                  z  -0.00201  0.04719  0.03071 -0.00017 -0.00313  0.00192
 11   h           x   0.34530  0.02473  0.14113  0.30649  0.28527  0.30370
                  y  -0.50708 -0.04304 -0.13274 -0.57820 -0.23444 -0.22711
                  z   0.05934  0.01050  0.08069 -0.15755  0.15931  0.17162
 12   h           x   0.08988 -0.02691 -0.15236  0.10861 -0.26615 -0.23108
                  y  -0.05566  0.09552  0.44899  0.05755  0.73407  0.61355
                  z   0.02993  0.01238  0.04683 -0.21659  0.06465  0.05275
 13   h           x   0.36286  0.03195  0.17736 -0.19041  0.34384  0.36652
                  y  -0.49806 -0.03947 -0.12089  0.64163 -0.19778 -0.20173
                  z   0.02326 -0.00438  0.01179 -0.07566  0.03762  0.04990

reduced mass(g/mol)     4.450   15.814   12.592    1.385    1.994    4.951


       mode              31       32       33       34       35       36

     frequency        1013.74  1015.15  1050.38  1284.66  1437.18  1446.52

     symmetry            a        a        a        a        a        a   

        IR               YES      YES      YES      YES      YES      YES
|dDIP/dQ|   (a.u.)     0.0057   0.0092   0.0108   0.0032   0.0013   0.0016
intensity (km/mol)      58.18   149.67   205.91    18.41     2.93     4.66
intensity (  %   )      15.00    38.58    53.07     4.74     0.76     1.20
 
       RAMAN             YES      YES      YES      YES      YES      YES
 
  1   c           x   0.04487 -0.04457  0.00290  0.06060 -0.04484 -0.02730
                  y   0.00455 -0.02281  0.00156 -0.12357 -0.02665 -0.01490
                  z   0.02795  0.08188 -0.00578 -0.00320 -0.02893  0.05581
  2   s           x  -0.06088  0.16626 -0.01114  0.00261 -0.00663 -0.00170
                  y  -0.03969  0.09042 -0.00602  0.00368 -0.00088 -0.00094
                  z  -0.05741 -0.32083  0.02222  0.00229 -0.00351  0.00356
  3   o           x   0.08115 -0.31087  0.02057 -0.00519  0.00242  0.00002
                  y   0.05424 -0.23743  0.01527 -0.00344 -0.00076 -0.00049
                  z  -0.02114  0.20475 -0.01586  0.00117  0.00175 -0.00041
  4   np          x  -0.00073  0.00123 -0.00150  0.00026 -0.00010  0.00001
                  y  -0.00071  0.00069 -0.00080 -0.00037  0.00018  0.00000
                  z  -0.00068 -0.00245  0.00298  0.00003  0.00000 -0.00002
  5   o           x  -0.47160  0.02960  0.46998  0.00025 -0.00011 -0.00009
                  y  -0.28875  0.01775  0.28276  0.00024 -0.00010 -0.00007
                  z   0.20607 -0.01398 -0.27669  0.00008 -0.00007  0.00007
  6   s           x   0.27674 -0.01478 -0.21688 -0.00015  0.00006  0.00004
                  y   0.18391 -0.00877 -0.11722 -0.00011  0.00005  0.00002
                  z   0.19105  0.01238  0.42996 -0.00010  0.00004 -0.00008
  7   o           x  -0.07798 -0.00045 -0.02379  0.00017 -0.00010 -0.00000
                  y  -0.07646 -0.00042 -0.04166  0.00019 -0.00010  0.00002
                  z  -0.58551 -0.01001 -0.60794  0.00025 -0.00008  0.00014
  8   o           x   0.02247 -0.01288  0.00233 -0.00164  0.00298  0.00013
                  y   0.02763  0.06057 -0.00288 -0.00151 -0.00044  0.00062
                  z   0.12677  0.42270 -0.02989 -0.00592  0.00062 -0.00004
  9   o           x   0.02467 -0.00403  0.00424 -0.00109  0.00049  0.00002
                  y  -0.03328 -0.00068  0.00231  0.00146 -0.00063  0.00002
                  z   0.00361  0.00641 -0.00856 -0.00015  0.00007 -0.00006
 10   o           x  -0.02341 -0.00290  0.00439 -0.00141  0.00051 -0.00037
                  y   0.03764 -0.00340  0.00222  0.00386 -0.00176 -0.00018
                  z  -0.00116  0.00764 -0.00855  0.00034 -0.00022  0.00073
 11   h           x  -0.11135  0.21773 -0.01657 -0.39160  0.15013 -0.38633
                  y   0.07440 -0.39190  0.02750  0.39258  0.25866  0.11956
                  z  -0.07022 -0.12845  0.00805  0.09770  0.58773 -0.25078
 12   h           x   0.08645  0.09189 -0.00551 -0.07651  0.02398  0.32208
                  y  -0.21473  0.06564 -0.00303  0.57119 -0.33445  0.17857
                  z  -0.02473 -0.19281  0.01105  0.11698 -0.08678 -0.64379
 13   h           x  -0.14582 -0.10117  0.00976 -0.25142  0.49346  0.44460
                  y   0.09409  0.43625 -0.03110  0.46952  0.43793 -0.09063
                  z  -0.02299 -0.06738  0.00537 -0.18560 -0.07894  0.11612

reduced mass(g/mol)    16.872   11.117   19.923    1.219    1.049    1.053


       mode              37       38       39

     frequency        3041.27  3149.88  3158.17

     symmetry            a        a        a   

        IR               YES      YES      YES
|dDIP/dQ|   (a.u.)     0.0039   0.0025   0.0005
intensity (km/mol)      26.69    11.23     0.46
intensity (  %   )       6.88     2.89     0.12
 
       RAMAN             YES      YES      YES
 
  1   c           x  -0.01926 -0.04077 -0.07453
                  y   0.03739 -0.02208 -0.03570
                  z   0.00049  0.08176 -0.04681
  2   s           x   0.00011 -0.00032 -0.00054
                  y  -0.00015 -0.00017  0.00007
                  z   0.00001  0.00064 -0.00025
  3   o           x   0.00009  0.00038  0.00023
                  y   0.00010  0.00008  0.00004
                  z  -0.00019 -0.00031  0.00005
  4   np          x   0.00001 -0.00000  0.00002
                  y  -0.00002 -0.00000 -0.00001
                  z  -0.00000  0.00001  0.00001
  5   o           x   0.00003  0.00001  0.00000
                  y   0.00002  0.00001  0.00001
                  z   0.00002 -0.00000  0.00000
  6   s           x  -0.00001 -0.00000 -0.00000
                  y  -0.00001 -0.00000 -0.00000
                  z  -0.00001  0.00001 -0.00000
  7   o           x   0.00003 -0.00000  0.00000
                  y   0.00003 -0.00000  0.00001
                  z   0.00002 -0.00001  0.00000
  8   o           x  -0.00010  0.00001  0.00017
                  y  -0.00001  0.00014  0.00001
                  z   0.00020 -0.00048  0.00016
  9   o           x  -0.00005  0.00001 -0.00005
                  y   0.00009  0.00000  0.00003
                  z  -0.00000 -0.00001 -0.00001
 10   o           x  -0.00022  0.00001 -0.00030
                  y   0.00023  0.00001  0.00020
                  z  -0.00005 -0.00003 -0.00010
 11   h           x  -0.34971  0.42553  0.24218
                  y  -0.36216  0.45661  0.26193
                  z   0.27654 -0.32423 -0.20455
 12   h           x   0.51140 -0.00932  0.71470
                  y   0.05741 -0.00468  0.06029
                  z   0.27128  0.01661  0.37375
 13   h           x   0.06555  0.07390 -0.05737
                  y  -0.13735 -0.18658  0.09927
                  z  -0.55382 -0.67514  0.39321

reduced mass(g/mol)     1.027    1.105    1.107
 

         **************************************************************
         *                                                            *
         *  zero point VIBRATIONAL energy  :      0.0591236  Hartree  *
         *    SCF-energy                   :  -1801.7440526           *
         *    SCF + E(vib0)                :  -1801.6849290           *
         *                                                            *
         **************************************************************




 time elapsed for vibrational analysis     0.11 sec


    ------------------------------------------------------------------------
         total  cpu-time :   1 days  0 hours 21 minutes and  7 seconds
         total wall-time :  3 hours  5 minutes and 45 seconds
    ------------------------------------------------------------------------

   ****  force : all done  ****


    2018-02-13 01:29:08.176 

aoforce ended normally 
